a solvated box
    9
    1WATER    O    1   0.000   0.000   0.000
    1WATER    H    2   0.957   0.000   0.000
    1WATER    H    3  -0.239   0.927   0.000
    2WATER    O    4   5.000   5.000   5.000
    2WATER    H    5   5.957   5.000   5.000
    2WATER    H    6   4.761   5.927   5.000
    3WATER    O    7   3.000   3.000   3.000
    3WATER    H    8   3.957   3.000   3.000
    3WATER    H    9   2.761   3.927   3.000
   10.00000 10.00000 10.00000
