a solvated box with a grid
  648
    1WATER    O    1   0.000   0.000   0.000
    1WATER    H    2   0.957   0.000   0.000
    1WATER    H    3  -0.239   0.927   0.000
    2WATER    O    4   0.000   0.000   3.000
    2WATER    H    5   0.957   0.000   3.000
    2WATER    H    6  -0.239   0.927   3.000
    3WATER    O    7   0.000   0.000   6.000
    3WATER    H    8   0.957   0.000   6.000
    3WATER    H    9  -0.239   0.927   6.000
    4WATER    O   10   0.000   0.000   9.000
    4WATER    H   11   0.957   0.000   9.000
    4WATER    H   12  -0.239   0.927   9.000
    5WATER    O   13   0.000   0.000  12.000
    5WATER    H   14   0.957   0.000  12.000
    5WATER    H   15  -0.239   0.927  12.000
    6WATER    O   16   0.000   0.000  15.000
    6WATER    H   17   0.957   0.000  15.000
    6WATER    H   18  -0.239   0.927  15.000
    7WATER    O   19   0.000   3.000   0.000
    7WATER    H   20   0.957   3.000   0.000
    7WATER    H   21  -0.239   3.927   0.000
    8WATER    O   22   0.000   3.000   3.000
    8WATER    H   23   0.957   3.000   3.000
    8WATER    H   24  -0.239   3.927   3.000
    9WATER    O   25   0.000   3.000   6.000
    9WATER    H   26   0.957   3.000   6.000
    9WATER    H   27  -0.239   3.927   6.000
   10WATER    O   28   0.000   3.000   9.000
   10WATER    H   29   0.957   3.000   9.000
   10WATER    H   30  -0.239   3.927   9.000
   11WATER    O   31   0.000   3.000  12.000
   11WATER    H   32   0.957   3.000  12.000
   11WATER    H   33  -0.239   3.927  12.000
   12WATER    O   34   0.000   3.000  15.000
   12WATER    H   35   0.957   3.000  15.000
   12WATER    H   36  -0.239   3.927  15.000
   13WATER    O   37   0.000   6.000   0.000
   13WATER    H   38   0.957   6.000   0.000
   13WATER    H   39  -0.239   6.927   0.000
   14WATER    O   40   0.000   6.000   3.000
   14WATER    H   41   0.957   6.000   3.000
   14WATER    H   42  -0.239   6.927   3.000
   15WATER    O   43   0.000   6.000   6.000
   15WATER    H   44   0.957   6.000   6.000
   15WATER    H   45  -0.239   6.927   6.000
   16WATER    O   46   0.000   6.000   9.000
   16WATER    H   47   0.957   6.000   9.000
   16WATER    H   48  -0.239   6.927   9.000
   17WATER    O   49   0.000   6.000  12.000
   17WATER    H   50   0.957   6.000  12.000
   17WATER    H   51  -0.239   6.927  12.000
   18WATER    O   52   0.000   6.000  15.000
   18WATER    H   53   0.957   6.000  15.000
   18WATER    H   54  -0.239   6.927  15.000
   19WATER    O   55   0.000   9.000   0.000
   19WATER    H   56   0.957   9.000   0.000
   19WATER    H   57  -0.239   9.927   0.000
   20WATER    O   58   0.000   9.000   3.000
   20WATER    H   59   0.957   9.000   3.000
   20WATER    H   60  -0.239   9.927   3.000
   21WATER    O   61   0.000   9.000   6.000
   21WATER    H   62   0.957   9.000   6.000
   21WATER    H   63  -0.239   9.927   6.000
   22WATER    O   64   0.000   9.000   9.000
   22WATER    H   65   0.957   9.000   9.000
   22WATER    H   66  -0.239   9.927   9.000
   23WATER    O   67   0.000   9.000  12.000
   23WATER    H   68   0.957   9.000  12.000
   23WATER    H   69  -0.239   9.927  12.000
   24WATER    O   70   0.000   9.000  15.000
   24WATER    H   71   0.957   9.000  15.000
   24WATER    H   72  -0.239   9.927  15.000
   25WATER    O   73   0.000  12.000   0.000
   25WATER    H   74   0.957  12.000   0.000
   25WATER    H   75  -0.239  12.927   0.000
   26WATER    O   76   0.000  12.000   3.000
   26WATER    H   77   0.957  12.000   3.000
   26WATER    H   78  -0.239  12.927   3.000
   27WATER    O   79   0.000  12.000   6.000
   27WATER    H   80   0.957  12.000   6.000
   27WATER    H   81  -0.239  12.927   6.000
   28WATER    O   82   0.000  12.000   9.000
   28WATER    H   83   0.957  12.000   9.000
   28WATER    H   84  -0.239  12.927   9.000
   29WATER    O   85   0.000  12.000  12.000
   29WATER    H   86   0.957  12.000  12.000
   29WATER    H   87  -0.239  12.927  12.000
   30WATER    O   88   0.000  12.000  15.000
   30WATER    H   89   0.957  12.000  15.000
   30WATER    H   90  -0.239  12.927  15.000
   31WATER    O   91   0.000  15.000   0.000
   31WATER    H   92   0.957  15.000   0.000
   31WATER    H   93  -0.239  15.927   0.000
   32WATER    O   94   0.000  15.000   3.000
   32WATER    H   95   0.957  15.000   3.000
   32WATER    H   96  -0.239  15.927   3.000
   33WATER    O   97   0.000  15.000   6.000
   33WATER    H   98   0.957  15.000   6.000
   33WATER    H   99  -0.239  15.927   6.000
   34WATER    O  100   0.000  15.000   9.000
   34WATER    H  101   0.957  15.000   9.000
   34WATER    H  102  -0.239  15.927   9.000
   35WATER    O  103   0.000  15.000  12.000
   35WATER    H  104   0.957  15.000  12.000
   35WATER    H  105  -0.239  15.927  12.000
   36WATER    O  106   0.000  15.000  15.000
   36WATER    H  107   0.957  15.000  15.000
   36WATER    H  108  -0.239  15.927  15.000
   37WATER    O  109   3.000   0.000   0.000
   37WATER    H  110   3.957   0.000   0.000
   37WATER    H  111   2.761   0.927   0.000
   38WATER    O  112   3.000   0.000   3.000
   38WATER    H  113   3.957   0.000   3.000
   38WATER    H  114   2.761   0.927   3.000
   39WATER    O  115   3.000   0.000   6.000
   39WATER    H  116   3.957   0.000   6.000
   39WATER    H  117   2.761   0.927   6.000
   40WATER    O  118   3.000   0.000   9.000
   40WATER    H  119   3.957   0.000   9.000
   40WATER    H  120   2.761   0.927   9.000
   41WATER    O  121   3.000   0.000  12.000
   41WATER    H  122   3.957   0.000  12.000
   41WATER    H  123   2.761   0.927  12.000
   42WATER    O  124   3.000   0.000  15.000
   42WATER    H  125   3.957   0.000  15.000
   42WATER    H  126   2.761   0.927  15.000
   43WATER    O  127   3.000   3.000   0.000
   43WATER    H  128   3.957   3.000   0.000
   43WATER    H  129   2.761   3.927   0.000
   44WATER    O  130   3.000   3.000   3.000
   44WATER    H  131   3.957   3.000   3.000
   44WATER    H  132   2.761   3.927   3.000
   45WATER    O  133   3.000   3.000   6.000
   45WATER    H  134   3.957   3.000   6.000
   45WATER    H  135   2.761   3.927   6.000
   46WATER    O  136   3.000   3.000   9.000
   46WATER    H  137   3.957   3.000   9.000
   46WATER    H  138   2.761   3.927   9.000
   47WATER    O  139   3.000   3.000  12.000
   47WATER    H  140   3.957   3.000  12.000
   47WATER    H  141   2.761   3.927  12.000
   48WATER    O  142   3.000   3.000  15.000
   48WATER    H  143   3.957   3.000  15.000
   48WATER    H  144   2.761   3.927  15.000
   49WATER    O  145   3.000   6.000   0.000
   49WATER    H  146   3.957   6.000   0.000
   49WATER    H  147   2.761   6.927   0.000
   50WATER    O  148   3.000   6.000   3.000
   50WATER    H  149   3.957   6.000   3.000
   50WATER    H  150   2.761   6.927   3.000
   51WATER    O  151   3.000   6.000   6.000
   51WATER    H  152   3.957   6.000   6.000
   51WATER    H  153   2.761   6.927   6.000
   52WATER    O  154   3.000   6.000   9.000
   52WATER    H  155   3.957   6.000   9.000
   52WATER    H  156   2.761   6.927   9.000
   53WATER    O  157   3.000   6.000  12.000
   53WATER    H  158   3.957   6.000  12.000
   53WATER    H  159   2.761   6.927  12.000
   54WATER    O  160   3.000   6.000  15.000
   54WATER    H  161   3.957   6.000  15.000
   54WATER    H  162   2.761   6.927  15.000
   55WATER    O  163   3.000   9.000   0.000
   55WATER    H  164   3.957   9.000   0.000
   55WATER    H  165   2.761   9.927   0.000
   56WATER    O  166   3.000   9.000   3.000
   56WATER    H  167   3.957   9.000   3.000
   56WATER    H  168   2.761   9.927   3.000
   57WATER    O  169   3.000   9.000   6.000
   57WATER    H  170   3.957   9.000   6.000
   57WATER    H  171   2.761   9.927   6.000
   58WATER    O  172   3.000   9.000   9.000
   58WATER    H  173   3.957   9.000   9.000
   58WATER    H  174   2.761   9.927   9.000
   59WATER    O  175   3.000   9.000  12.000
   59WATER    H  176   3.957   9.000  12.000
   59WATER    H  177   2.761   9.927  12.000
   60WATER    O  178   3.000   9.000  15.000
   60WATER    H  179   3.957   9.000  15.000
   60WATER    H  180   2.761   9.927  15.000
   61WATER    O  181   3.000  12.000   0.000
   61WATER    H  182   3.957  12.000   0.000
   61WATER    H  183   2.761  12.927   0.000
   62WATER    O  184   3.000  12.000   3.000
   62WATER    H  185   3.957  12.000   3.000
   62WATER    H  186   2.761  12.927   3.000
   63WATER    O  187   3.000  12.000   6.000
   63WATER    H  188   3.957  12.000   6.000
   63WATER    H  189   2.761  12.927   6.000
   64WATER    O  190   3.000  12.000   9.000
   64WATER    H  191   3.957  12.000   9.000
   64WATER    H  192   2.761  12.927   9.000
   65WATER    O  193   3.000  12.000  12.000
   65WATER    H  194   3.957  12.000  12.000
   65WATER    H  195   2.761  12.927  12.000
   66WATER    O  196   3.000  12.000  15.000
   66WATER    H  197   3.957  12.000  15.000
   66WATER    H  198   2.761  12.927  15.000
   67WATER    O  199   3.000  15.000   0.000
   67WATER    H  200   3.957  15.000   0.000
   67WATER    H  201   2.761  15.927   0.000
   68WATER    O  202   3.000  15.000   3.000
   68WATER    H  203   3.957  15.000   3.000
   68WATER    H  204   2.761  15.927   3.000
   69WATER    O  205   3.000  15.000   6.000
   69WATER    H  206   3.957  15.000   6.000
   69WATER    H  207   2.761  15.927   6.000
   70WATER    O  208   3.000  15.000   9.000
   70WATER    H  209   3.957  15.000   9.000
   70WATER    H  210   2.761  15.927   9.000
   71WATER    O  211   3.000  15.000  12.000
   71WATER    H  212   3.957  15.000  12.000
   71WATER    H  213   2.761  15.927  12.000
   72WATER    O  214   3.000  15.000  15.000
   72WATER    H  215   3.957  15.000  15.000
   72WATER    H  216   2.761  15.927  15.000
   73WATER    O  217   6.000   0.000   0.000
   73WATER    H  218   6.957   0.000   0.000
   73WATER    H  219   5.761   0.927   0.000
   74WATER    O  220   6.000   0.000   3.000
   74WATER    H  221   6.957   0.000   3.000
   74WATER    H  222   5.761   0.927   3.000
   75WATER    O  223   6.000   0.000   6.000
   75WATER    H  224   6.957   0.000   6.000
   75WATER    H  225   5.761   0.927   6.000
   76WATER    O  226   6.000   0.000   9.000
   76WATER    H  227   6.957   0.000   9.000
   76WATER    H  228   5.761   0.927   9.000
   77WATER    O  229   6.000   0.000  12.000
   77WATER    H  230   6.957   0.000  12.000
   77WATER    H  231   5.761   0.927  12.000
   78WATER    O  232   6.000   0.000  15.000
   78WATER    H  233   6.957   0.000  15.000
   78WATER    H  234   5.761   0.927  15.000
   79WATER    O  235   6.000   3.000   0.000
   79WATER    H  236   6.957   3.000   0.000
   79WATER    H  237   5.761   3.927   0.000
   80WATER    O  238   6.000   3.000   3.000
   80WATER    H  239   6.957   3.000   3.000
   80WATER    H  240   5.761   3.927   3.000
   81WATER    O  241   6.000   3.000   6.000
   81WATER    H  242   6.957   3.000   6.000
   81WATER    H  243   5.761   3.927   6.000
   82WATER    O  244   6.000   3.000   9.000
   82WATER    H  245   6.957   3.000   9.000
   82WATER    H  246   5.761   3.927   9.000
   83WATER    O  247   6.000   3.000  12.000
   83WATER    H  248   6.957   3.000  12.000
   83WATER    H  249   5.761   3.927  12.000
   84WATER    O  250   6.000   3.000  15.000
   84WATER    H  251   6.957   3.000  15.000
   84WATER    H  252   5.761   3.927  15.000
   85WATER    O  253   6.000   6.000   0.000
   85WATER    H  254   6.957   6.000   0.000
   85WATER    H  255   5.761   6.927   0.000
   86WATER    O  256   6.000   6.000   3.000
   86WATER    H  257   6.957   6.000   3.000
   86WATER    H  258   5.761   6.927   3.000
   87WATER    O  259   6.000   6.000   6.000
   87WATER    H  260   6.957   6.000   6.000
   87WATER    H  261   5.761   6.927   6.000
   88WATER    O  262   6.000   6.000   9.000
   88WATER    H  263   6.957   6.000   9.000
   88WATER    H  264   5.761   6.927   9.000
   89WATER    O  265   6.000   6.000  12.000
   89WATER    H  266   6.957   6.000  12.000
   89WATER    H  267   5.761   6.927  12.000
   90WATER    O  268   6.000   6.000  15.000
   90WATER    H  269   6.957   6.000  15.000
   90WATER    H  270   5.761   6.927  15.000
   91WATER    O  271   6.000   9.000   0.000
   91WATER    H  272   6.957   9.000   0.000
   91WATER    H  273   5.761   9.927   0.000
   92WATER    O  274   6.000   9.000   3.000
   92WATER    H  275   6.957   9.000   3.000
   92WATER    H  276   5.761   9.927   3.000
   93WATER    O  277   6.000   9.000   6.000
   93WATER    H  278   6.957   9.000   6.000
   93WATER    H  279   5.761   9.927   6.000
   94WATER    O  280   6.000   9.000   9.000
   94WATER    H  281   6.957   9.000   9.000
   94WATER    H  282   5.761   9.927   9.000
   95WATER    O  283   6.000   9.000  12.000
   95WATER    H  284   6.957   9.000  12.000
   95WATER    H  285   5.761   9.927  12.000
   96WATER    O  286   6.000   9.000  15.000
   96WATER    H  287   6.957   9.000  15.000
   96WATER    H  288   5.761   9.927  15.000
   97WATER    O  289   6.000  12.000   0.000
   97WATER    H  290   6.957  12.000   0.000
   97WATER    H  291   5.761  12.927   0.000
   98WATER    O  292   6.000  12.000   3.000
   98WATER    H  293   6.957  12.000   3.000
   98WATER    H  294   5.761  12.927   3.000
   99WATER    O  295   6.000  12.000   6.000
   99WATER    H  296   6.957  12.000   6.000
   99WATER    H  297   5.761  12.927   6.000
  100WATER    O  298   6.000  12.000   9.000
  100WATER    H  299   6.957  12.000   9.000
  100WATER    H  300   5.761  12.927   9.000
  101WATER    O  301   6.000  12.000  12.000
  101WATER    H  302   6.957  12.000  12.000
  101WATER    H  303   5.761  12.927  12.000
  102WATER    O  304   6.000  12.000  15.000
  102WATER    H  305   6.957  12.000  15.000
  102WATER    H  306   5.761  12.927  15.000
  103WATER    O  307   6.000  15.000   0.000
  103WATER    H  308   6.957  15.000   0.000
  103WATER    H  309   5.761  15.927   0.000
  104WATER    O  310   6.000  15.000   3.000
  104WATER    H  311   6.957  15.000   3.000
  104WATER    H  312   5.761  15.927   3.000
  105WATER    O  313   6.000  15.000   6.000
  105WATER    H  314   6.957  15.000   6.000
  105WATER    H  315   5.761  15.927   6.000
  106WATER    O  316   6.000  15.000   9.000
  106WATER    H  317   6.957  15.000   9.000
  106WATER    H  318   5.761  15.927   9.000
  107WATER    O  319   6.000  15.000  12.000
  107WATER    H  320   6.957  15.000  12.000
  107WATER    H  321   5.761  15.927  12.000
  108WATER    O  322   6.000  15.000  15.000
  108WATER    H  323   6.957  15.000  15.000
  108WATER    H  324   5.761  15.927  15.000
  109WATER    O  325   9.000   0.000   0.000
  109WATER    H  326   9.957   0.000   0.000
  109WATER    H  327   8.761   0.927   0.000
  110WATER    O  328   9.000   0.000   3.000
  110WATER    H  329   9.957   0.000   3.000
  110WATER    H  330   8.761   0.927   3.000
  111WATER    O  331   9.000   0.000   6.000
  111WATER    H  332   9.957   0.000   6.000
  111WATER    H  333   8.761   0.927   6.000
  112WATER    O  334   9.000   0.000   9.000
  112WATER    H  335   9.957   0.000   9.000
  112WATER    H  336   8.761   0.927   9.000
  113WATER    O  337   9.000   0.000  12.000
  113WATER    H  338   9.957   0.000  12.000
  113WATER    H  339   8.761   0.927  12.000
  114WATER    O  340   9.000   0.000  15.000
  114WATER    H  341   9.957   0.000  15.000
  114WATER    H  342   8.761   0.927  15.000
  115WATER    O  343   9.000   3.000   0.000
  115WATER    H  344   9.957   3.000   0.000
  115WATER    H  345   8.761   3.927   0.000
  116WATER    O  346   9.000   3.000   3.000
  116WATER    H  347   9.957   3.000   3.000
  116WATER    H  348   8.761   3.927   3.000
  117WATER    O  349   9.000   3.000   6.000
  117WATER    H  350   9.957   3.000   6.000
  117WATER    H  351   8.761   3.927   6.000
  118WATER    O  352   9.000   3.000   9.000
  118WATER    H  353   9.957   3.000   9.000
  118WATER    H  354   8.761   3.927   9.000
  119WATER    O  355   9.000   3.000  12.000
  119WATER    H  356   9.957   3.000  12.000
  119WATER    H  357   8.761   3.927  12.000
  120WATER    O  358   9.000   3.000  15.000
  120WATER    H  359   9.957   3.000  15.000
  120WATER    H  360   8.761   3.927  15.000
  121WATER    O  361   9.000   6.000   0.000
  121WATER    H  362   9.957   6.000   0.000
  121WATER    H  363   8.761   6.927   0.000
  122WATER    O  364   9.000   6.000   3.000
  122WATER    H  365   9.957   6.000   3.000
  122WATER    H  366   8.761   6.927   3.000
  123WATER    O  367   9.000   6.000   6.000
  123WATER    H  368   9.957   6.000   6.000
  123WATER    H  369   8.761   6.927   6.000
  124WATER    O  370   9.000   6.000   9.000
  124WATER    H  371   9.957   6.000   9.000
  124WATER    H  372   8.761   6.927   9.000
  125WATER    O  373   9.000   6.000  12.000
  125WATER    H  374   9.957   6.000  12.000
  125WATER    H  375   8.761   6.927  12.000
  126WATER    O  376   9.000   6.000  15.000
  126WATER    H  377   9.957   6.000  15.000
  126WATER    H  378   8.761   6.927  15.000
  127WATER    O  379   9.000   9.000   0.000
  127WATER    H  380   9.957   9.000   0.000
  127WATER    H  381   8.761   9.927   0.000
  128WATER    O  382   9.000   9.000   3.000
  128WATER    H  383   9.957   9.000   3.000
  128WATER    H  384   8.761   9.927   3.000
  129WATER    O  385   9.000   9.000   6.000
  129WATER    H  386   9.957   9.000   6.000
  129WATER    H  387   8.761   9.927   6.000
  130WATER    O  388   9.000   9.000   9.000
  130WATER    H  389   9.957   9.000   9.000
  130WATER    H  390   8.761   9.927   9.000
  131WATER    O  391   9.000   9.000  12.000
  131WATER    H  392   9.957   9.000  12.000
  131WATER    H  393   8.761   9.927  12.000
  132WATER    O  394   9.000   9.000  15.000
  132WATER    H  395   9.957   9.000  15.000
  132WATER    H  396   8.761   9.927  15.000
  133WATER    O  397   9.000  12.000   0.000
  133WATER    H  398   9.957  12.000   0.000
  133WATER    H  399   8.761  12.927   0.000
  134WATER    O  400   9.000  12.000   3.000
  134WATER    H  401   9.957  12.000   3.000
  134WATER    H  402   8.761  12.927   3.000
  135WATER    O  403   9.000  12.000   6.000
  135WATER    H  404   9.957  12.000   6.000
  135WATER    H  405   8.761  12.927   6.000
  136WATER    O  406   9.000  12.000   9.000
  136WATER    H  407   9.957  12.000   9.000
  136WATER    H  408   8.761  12.927   9.000
  137WATER    O  409   9.000  12.000  12.000
  137WATER    H  410   9.957  12.000  12.000
  137WATER    H  411   8.761  12.927  12.000
  138WATER    O  412   9.000  12.000  15.000
  138WATER    H  413   9.957  12.000  15.000
  138WATER    H  414   8.761  12.927  15.000
  139WATER    O  415   9.000  15.000   0.000
  139WATER    H  416   9.957  15.000   0.000
  139WATER    H  417   8.761  15.927   0.000
  140WATER    O  418   9.000  15.000   3.000
  140WATER    H  419   9.957  15.000   3.000
  140WATER    H  420   8.761  15.927   3.000
  141WATER    O  421   9.000  15.000   6.000
  141WATER    H  422   9.957  15.000   6.000
  141WATER    H  423   8.761  15.927   6.000
  142WATER    O  424   9.000  15.000   9.000
  142WATER    H  425   9.957  15.000   9.000
  142WATER    H  426   8.761  15.927   9.000
  143WATER    O  427   9.000  15.000  12.000
  143WATER    H  428   9.957  15.000  12.000
  143WATER    H  429   8.761  15.927  12.000
  144WATER    O  430   9.000  15.000  15.000
  144WATER    H  431   9.957  15.000  15.000
  144WATER    H  432   8.761  15.927  15.000
  145WATER    O  433  12.000   0.000   0.000
  145WATER    H  434  12.957   0.000   0.000
  145WATER    H  435  11.761   0.927   0.000
  146WATER    O  436  12.000   0.000   3.000
  146WATER    H  437  12.957   0.000   3.000
  146WATER    H  438  11.761   0.927   3.000
  147WATER    O  439  12.000   0.000   6.000
  147WATER    H  440  12.957   0.000   6.000
  147WATER    H  441  11.761   0.927   6.000
  148WATER    O  442  12.000   0.000   9.000
  148WATER    H  443  12.957   0.000   9.000
  148WATER    H  444  11.761   0.927   9.000
  149WATER    O  445  12.000   0.000  12.000
  149WATER    H  446  12.957   0.000  12.000
  149WATER    H  447  11.761   0.927  12.000
  150WATER    O  448  12.000   0.000  15.000
  150WATER    H  449  12.957   0.000  15.000
  150WATER    H  450  11.761   0.927  15.000
  151WATER    O  451  12.000   3.000   0.000
  151WATER    H  452  12.957   3.000   0.000
  151WATER    H  453  11.761   3.927   0.000
  152WATER    O  454  12.000   3.000   3.000
  152WATER    H  455  12.957   3.000   3.000
  152WATER    H  456  11.761   3.927   3.000
  153WATER    O  457  12.000   3.000   6.000
  153WATER    H  458  12.957   3.000   6.000
  153WATER    H  459  11.761   3.927   6.000
  154WATER    O  460  12.000   3.000   9.000
  154WATER    H  461  12.957   3.000   9.000
  154WATER    H  462  11.761   3.927   9.000
  155WATER    O  463  12.000   3.000  12.000
  155WATER    H  464  12.957   3.000  12.000
  155WATER    H  465  11.761   3.927  12.000
  156WATER    O  466  12.000   3.000  15.000
  156WATER    H  467  12.957   3.000  15.000
  156WATER    H  468  11.761   3.927  15.000
  157WATER    O  469  12.000   6.000   0.000
  157WATER    H  470  12.957   6.000   0.000
  157WATER    H  471  11.761   6.927   0.000
  158WATER    O  472  12.000   6.000   3.000
  158WATER    H  473  12.957   6.000   3.000
  158WATER    H  474  11.761   6.927   3.000
  159WATER    O  475  12.000   6.000   6.000
  159WATER    H  476  12.957   6.000   6.000
  159WATER    H  477  11.761   6.927   6.000
  160WATER    O  478  12.000   6.000   9.000
  160WATER    H  479  12.957   6.000   9.000
  160WATER    H  480  11.761   6.927   9.000
  161WATER    O  481  12.000   6.000  12.000
  161WATER    H  482  12.957   6.000  12.000
  161WATER    H  483  11.761   6.927  12.000
  162WATER    O  484  12.000   6.000  15.000
  162WATER    H  485  12.957   6.000  15.000
  162WATER    H  486  11.761   6.927  15.000
  163WATER    O  487  12.000   9.000   0.000
  163WATER    H  488  12.957   9.000   0.000
  163WATER    H  489  11.761   9.927   0.000
  164WATER    O  490  12.000   9.000   3.000
  164WATER    H  491  12.957   9.000   3.000
  164WATER    H  492  11.761   9.927   3.000
  165WATER    O  493  12.000   9.000   6.000
  165WATER    H  494  12.957   9.000   6.000
  165WATER    H  495  11.761   9.927   6.000
  166WATER    O  496  12.000   9.000   9.000
  166WATER    H  497  12.957   9.000   9.000
  166WATER    H  498  11.761   9.927   9.000
  167WATER    O  499  12.000   9.000  12.000
  167WATER    H  500  12.957   9.000  12.000
  167WATER    H  501  11.761   9.927  12.000
  168WATER    O  502  12.000   9.000  15.000
  168WATER    H  503  12.957   9.000  15.000
  168WATER    H  504  11.761   9.927  15.000
  169WATER    O  505  12.000  12.000   0.000
  169WATER    H  506  12.957  12.000   0.000
  169WATER    H  507  11.761  12.927   0.000
  170WATER    O  508  12.000  12.000   3.000
  170WATER    H  509  12.957  12.000   3.000
  170WATER    H  510  11.761  12.927   3.000
  171WATER    O  511  12.000  12.000   6.000
  171WATER    H  512  12.957  12.000   6.000
  171WATER    H  513  11.761  12.927   6.000
  172WATER    O  514  12.000  12.000   9.000
  172WATER    H  515  12.957  12.000   9.000
  172WATER    H  516  11.761  12.927   9.000
  173WATER    O  517  12.000  12.000  12.000
  173WATER    H  518  12.957  12.000  12.000
  173WATER    H  519  11.761  12.927  12.000
  174WATER    O  520  12.000  12.000  15.000
  174WATER    H  521  12.957  12.000  15.000
  174WATER    H  522  11.761  12.927  15.000
  175WATER    O  523  12.000  15.000   0.000
  175WATER    H  524  12.957  15.000   0.000
  175WATER    H  525  11.761  15.927   0.000
  176WATER    O  526  12.000  15.000   3.000
  176WATER    H  527  12.957  15.000   3.000
  176WATER    H  528  11.761  15.927   3.000
  177WATER    O  529  12.000  15.000   6.000
  177WATER    H  530  12.957  15.000   6.000
  177WATER    H  531  11.761  15.927   6.000
  178WATER    O  532  12.000  15.000   9.000
  178WATER    H  533  12.957  15.000   9.000
  178WATER    H  534  11.761  15.927   9.000
  179WATER    O  535  12.000  15.000  12.000
  179WATER    H  536  12.957  15.000  12.000
  179WATER    H  537  11.761  15.927  12.000
  180WATER    O  538  12.000  15.000  15.000
  180WATER    H  539  12.957  15.000  15.000
  180WATER    H  540  11.761  15.927  15.000
  181WATER    O  541  15.000   0.000   0.000
  181WATER    H  542  15.957   0.000   0.000
  181WATER    H  543  14.761   0.927   0.000
  182WATER    O  544  15.000   0.000   3.000
  182WATER    H  545  15.957   0.000   3.000
  182WATER    H  546  14.761   0.927   3.000
  183WATER    O  547  15.000   0.000   6.000
  183WATER    H  548  15.957   0.000   6.000
  183WATER    H  549  14.761   0.927   6.000
  184WATER    O  550  15.000   0.000   9.000
  184WATER    H  551  15.957   0.000   9.000
  184WATER    H  552  14.761   0.927   9.000
  185WATER    O  553  15.000   0.000  12.000
  185WATER    H  554  15.957   0.000  12.000
  185WATER    H  555  14.761   0.927  12.000
  186WATER    O  556  15.000   0.000  15.000
  186WATER    H  557  15.957   0.000  15.000
  186WATER    H  558  14.761   0.927  15.000
  187WATER    O  559  15.000   3.000   0.000
  187WATER    H  560  15.957   3.000   0.000
  187WATER    H  561  14.761   3.927   0.000
  188WATER    O  562  15.000   3.000   3.000
  188WATER    H  563  15.957   3.000   3.000
  188WATER    H  564  14.761   3.927   3.000
  189WATER    O  565  15.000   3.000   6.000
  189WATER    H  566  15.957   3.000   6.000
  189WATER    H  567  14.761   3.927   6.000
  190WATER    O  568  15.000   3.000   9.000
  190WATER    H  569  15.957   3.000   9.000
  190WATER    H  570  14.761   3.927   9.000
  191WATER    O  571  15.000   3.000  12.000
  191WATER    H  572  15.957   3.000  12.000
  191WATER    H  573  14.761   3.927  12.000
  192WATER    O  574  15.000   3.000  15.000
  192WATER    H  575  15.957   3.000  15.000
  192WATER    H  576  14.761   3.927  15.000
  193WATER    O  577  15.000   6.000   0.000
  193WATER    H  578  15.957   6.000   0.000
  193WATER    H  579  14.761   6.927   0.000
  194WATER    O  580  15.000   6.000   3.000
  194WATER    H  581  15.957   6.000   3.000
  194WATER    H  582  14.761   6.927   3.000
  195WATER    O  583  15.000   6.000   6.000
  195WATER    H  584  15.957   6.000   6.000
  195WATER    H  585  14.761   6.927   6.000
  196WATER    O  586  15.000   6.000   9.000
  196WATER    H  587  15.957   6.000   9.000
  196WATER    H  588  14.761   6.927   9.000
  197WATER    O  589  15.000   6.000  12.000
  197WATER    H  590  15.957   6.000  12.000
  197WATER    H  591  14.761   6.927  12.000
  198WATER    O  592  15.000   6.000  15.000
  198WATER    H  593  15.957   6.000  15.000
  198WATER    H  594  14.761   6.927  15.000
  199WATER    O  595  15.000   9.000   0.000
  199WATER    H  596  15.957   9.000   0.000
  199WATER    H  597  14.761   9.927   0.000
  200WATER    O  598  15.000   9.000   3.000
  200WATER    H  599  15.957   9.000   3.000
  200WATER    H  600  14.761   9.927   3.000
  201WATER    O  601  15.000   9.000   6.000
  201WATER    H  602  15.957   9.000   6.000
  201WATER    H  603  14.761   9.927   6.000
  202WATER    O  604  15.000   9.000   9.000
  202WATER    H  605  15.957   9.000   9.000
  202WATER    H  606  14.761   9.927   9.000
  203WATER    O  607  15.000   9.000  12.000
  203WATER    H  608  15.957   9.000  12.000
  203WATER    H  609  14.761   9.927  12.000
  204WATER    O  610  15.000   9.000  15.000
  204WATER    H  611  15.957   9.000  15.000
  204WATER    H  612  14.761   9.927  15.000
  205WATER    O  613  15.000  12.000   0.000
  205WATER    H  614  15.957  12.000   0.000
  205WATER    H  615  14.761  12.927   0.000
  206WATER    O  616  15.000  12.000   3.000
  206WATER    H  617  15.957  12.000   3.000
  206WATER    H  618  14.761  12.927   3.000
  207WATER    O  619  15.000  12.000   6.000
  207WATER    H  620  15.957  12.000   6.000
  207WATER    H  621  14.761  12.927   6.000
  208WATER    O  622  15.000  12.000   9.000
  208WATER    H  623  15.957  12.000   9.000
  208WATER    H  624  14.761  12.927   9.000
  209WATER    O  625  15.000  12.000  12.000
  209WATER    H  626  15.957  12.000  12.000
  209WATER    H  627  14.761  12.927  12.000
  210WATER    O  628  15.000  12.000  15.000
  210WATER    H  629  15.957  12.000  15.000
  210WATER    H  630  14.761  12.927  15.000
  211WATER    O  631  15.000  15.000   0.000
  211WATER    H  632  15.957  15.000   0.000
  211WATER    H  633  14.761  15.927   0.000
  212WATER    O  634  15.000  15.000   3.000
  212WATER    H  635  15.957  15.000   3.000
  212WATER    H  636  14.761  15.927   3.000
  213WATER    O  637  15.000  15.000   6.000
  213WATER    H  638  15.957  15.000   6.000
  213WATER    H  639  14.761  15.927   6.000
  214WATER    O  640  15.000  15.000   9.000
  214WATER    H  641  15.957  15.000   9.000
  214WATER    H  642  14.761  15.927   9.000
  215WATER    O  643  15.000  15.000  12.000
  215WATER    H  644  15.957  15.000  12.000
  215WATER    H  645  14.761  15.927  12.000
  216WATER    O  646  15.000  15.000  15.000
  216WATER    H  647  15.957  15.000  15.000
  216WATER    H  648  14.761  15.927  15.000
   100.00000 100.00000 100.00000
