Title
54120
    1POPC     N    1   4.882   3.145   5.870  0.3913  0.3676 -0.1550
    1POPC   C12    2   5.020   3.110   5.829 -0.4890 -0.3532 -0.7991
    1POPC  H12A    3   5.015   3.007   5.797 -1.2119  0.1157 -2.2794
    1POPC  H12B    4   5.083   3.111   5.917  0.0835 -1.2721 -1.1821
    1POPC   C13    5   4.831   3.035   5.952  0.0677  0.2536 -0.8500
    1POPC  H13A    6   4.909   3.003   6.019 -0.2732 -2.5956 -1.6827
    1POPC  H13B    7   4.745   3.063   6.010 -0.3590 -0.8332 -0.9332
    1POPC  H13C    8   4.804   2.945   5.898  0.3881 -1.7332  2.0633
    1POPC   C14    9   4.882   3.281   5.940  0.3672 -0.6058  1.0707
    1POPC  H14A   10   4.783   3.326   5.943  0.8129  0.3891  1.3132
    1POPC  H14B   11   4.907   3.265   6.043 -1.3836 -0.1165  1.6107
    1POPC  H14C   12   4.945   3.352   5.888  0.1660 -0.0976  1.5081
    1POPC   C15   13   4.795   3.160   5.753 -0.1212 -0.7741 -0.9008
    1POPC  H15A   14   4.696   3.184   5.790  0.6106  0.0235  0.6472
    1POPC  H15B   15   4.791   3.069   5.694 -0.2189 -2.3023  1.3296
    1POPC  H15C   16   4.824   3.250   5.701  0.0308 -0.2735  0.0350
    1POPC   C11   17   5.092   3.176   5.718  0.1551 -0.4949  0.8203
    1POPC  H11A   18   5.040   3.179   5.619  0.4065 -1.2028  0.6578
    1POPC  H11B   19   5.187   3.124   5.694  0.2191 -0.4662  1.0116
    1POPC     P   20   5.232   3.358   5.844 -0.3983 -0.1365 -0.0461
    1POPC   O13   21   5.239   3.264   5.960  0.3276 -0.7695  0.4076
    1POPC   O14   22   5.232   3.503   5.867 -0.7041  0.2415 -0.4950
    1POPC   O12   23   5.103   3.315   5.754 -0.5340 -0.0605 -0.6615
    1POPC   O11   24   5.357   3.331   5.743 -0.5078  0.7142 -0.6365
    1POPC    C1   25   5.386   3.395   5.624  0.1776 -0.3784 -0.4442
    1POPC    HA   26   5.497   3.406   5.616  0.1997 -0.4123 -0.2003
    1POPC    HB   27   5.332   3.492   5.620  1.2770  0.3742  1.3482
    1POPC    C2   28   5.332   3.321   5.497 -0.0804  0.7907 -1.1359
    1POPC    HS   29   5.228   3.293   5.525  0.5166  1.3889  2.0949
    1POPC   O21   30   5.410   3.212   5.462 -0.9482  0.5845 -0.1062
    1POPC   C21   31   5.344   3.094   5.437 -0.7571  0.6583 -1.0391
    1POPC   O22   32   5.229   3.081   5.409 -0.2421  0.1337  0.4554
    1POPC   C22   33   5.438   2.975   5.451  0.6919 -1.0184  0.4583
    1POPC   H2R   34   5.405   2.926   5.545  1.7334 -1.9293  0.3705
    1POPC   H2S   35   5.542   3.011   5.463 -0.5142  2.9430  0.4727
    1POPC    C3   36   5.318   3.423   5.383 -0.0194 -0.2906  0.6976
    1POPC    HX   37   5.422   3.454   5.361  0.3793 -1.9387  0.0981
    1POPC    HY   38   5.268   3.517   5.416 -0.6210 -1.5041  3.5224
    1POPC   O31   39   5.253   3.371   5.266 -0.0143  0.3153 -0.1480
    1POPC   C31   40   5.120   3.344   5.273  0.0638  0.2082 -0.4688
    1POPC   O32   41   5.043   3.377   5.360 -0.2781  0.6787 -0.6569
    1POPC   C32   42   5.079   3.252   5.165 -0.0488 -0.3270  0.1611
    1POPC   H2X   43   4.978   3.292   5.142  0.6985  0.8996 -1.0923
    1POPC   H2Y   44   5.066   3.154   5.216  1.9765 -1.0248 -0.5945
    1POPC   C23   45   5.417   2.872   5.339  0.3235  0.0775 -0.1141
    1POPC   H3R   46   5.449   2.925   5.246  2.0757  2.4900  1.7479
    1POPC   H3S   47   5.309   2.846   5.336  0.5263 -0.7435 -0.8300
    1POPC   C24   48   5.491   2.743   5.335 -0.2535 -0.2959 -1.2041
    1POPC   H4R   49   5.475   2.690   5.431  0.5597  0.4498 -0.6479
    1POPC   H4S   50   5.602   2.754   5.328 -0.3858  0.5216 -2.2465
    1POPC   C25   51   5.460   2.634   5.227 -0.8208 -0.3131  0.9131
    1POPC   H5R   52   5.353   2.608   5.241 -1.1471  1.3921  1.7808
    1POPC   H5S   53   5.517   2.539   5.238 -1.8438 -1.0568  0.0771
    1POPC   C26   54   5.473   2.695   5.084  0.2614 -0.1388 -1.6655
    1POPC   H6R   55   5.565   2.755   5.069 -0.2646  1.1765  0.0177
    1POPC   H6S   56   5.401   2.780   5.085  0.5933  0.2127  1.0271
    1POPC   C27   57   5.453   2.602   4.971  0.1576 -0.6112 -0.5408
    1POPC   H7R   58   5.371   2.537   5.007  0.8733 -0.0189  2.4770
    1POPC   H7S   59   5.548   2.546   4.957  0.1626 -1.3003  1.7935
    1POPC   C28   60   5.414   2.672   4.844 -0.0631  0.1859  0.0482
    1POPC   H8R   61   5.486   2.755   4.831  0.8545 -0.8257 -1.6884
    1POPC   H8S   62   5.317   2.720   4.866  0.3993  0.6907  1.0693
    1POPC   C29   63   5.410   2.596   4.710 -0.1260 -0.4592 -0.4808
    1POPC   H91   64   5.457   2.496   4.713  2.1020  0.4280 -2.2956
    1POPC  C210   65   5.349   2.638   4.601  0.5949  0.1643 -0.2658
    1POPC  H101   66   5.332   2.576   4.511  1.8752 -0.0795 -0.3561
    1POPC  C211   67   5.277   2.769   4.590 -0.0726 -0.4745  0.5008
    1POPC  H11R   68   5.332   2.842   4.654  1.1364 -0.2320 -0.7777
    1POPC  H11S   69   5.169   2.765   4.614 -0.0619  0.5699  0.8042
    1POPC  C212   70   5.288   2.832   4.451 -0.5118  0.1050 -0.3382
    1POPC  H12R   71   5.260   2.756   4.374  1.0976 -0.6461 -0.2159
    1POPC  H12S   72   5.395   2.850   4.429  1.2658 -5.3563  2.0860
    1POPC  C213   73   5.205   2.959   4.429 -0.2556  0.2068  0.3108
    1POPC  H13R   74   5.220   3.030   4.513  1.0996  0.2570  0.0537
    1POPC  H13S   75   5.098   2.930   4.424  0.4363 -2.5302  0.0140
    1POPC  C214   76   5.251   3.033   4.302  0.3917 -0.1901 -0.0348
    1POPC  H14R   77   5.258   2.966   4.214  4.1802  0.9081 -0.7411
    1POPC  H14S   78   5.354   3.067   4.324 -0.0519  0.3393  1.3882
    1POPC  C215   79   5.163   3.160   4.263  0.1361  0.3616  0.4856
    1POPC  H15R   80   5.206   3.220   4.180 -0.8309  1.1499  0.5250
    1POPC  H15S   81   5.149   3.225   4.352 -0.4992  1.5772 -0.4612
    1POPC  C216   82   5.016   3.114   4.230  0.4242  0.5610 -0.4044
    1POPC  H16R   83   4.983   3.041   4.307  0.3963 -0.2571 -1.1781
    1POPC  H16S   84   5.016   3.048   4.141  0.1400  1.2853 -0.9474
    1POPC  C217   85   4.923   3.229   4.208  0.5326  0.0107 -0.4075
    1POPC  H17R   86   4.966   3.296   4.131  2.8563 -0.4430  0.4158
    1POPC  H17S   87   4.919   3.286   4.304 -0.9901 -1.6173  0.5801
    1POPC  C218   88   4.787   3.182   4.164 -0.0693  0.1851  0.9774
    1POPC  H18R   89   4.711   3.263   4.159 -0.8456 -0.5072  1.4512
    1POPC  H18S   90   4.744   3.109   4.235  0.1573  1.1802  2.1810
    1POPC  H18T   91   4.791   3.143   4.060 -1.8049  0.9555  0.5825
    1POPC   C33   92   5.181   3.233   5.052 -0.4633 -0.1339 -0.5311
    1POPC   H3X   93   5.246   3.323   5.040  1.2218 -1.2303  0.1273
    1POPC   H3Y   94   5.118   3.226   4.961 -1.5521  0.1749  0.1727
    1POPC   C34   95   5.261   3.107   5.081  0.5188  0.0954  0.1104
    1POPC   H4X   96   5.198   3.016   5.093  1.8897 -0.6568  2.1701
    1POPC   H4Y   97   5.314   3.118   5.178 -0.5570 -0.6408  0.8040
    1POPC   C35   98   5.356   3.074   4.966 -0.5641  0.1857  1.1685
    1POPC   H5X   99   5.293   3.078   4.874 -0.7032 -0.2266  1.2433
    1POPC   H5Y  100   5.382   2.966   4.967 -1.4414 -0.4226 -4.4900
    1POPC   C36  101   5.477   3.173   4.956 -0.1245  0.0907 -0.0619
    1POPC   H6X  102   5.527   3.166   5.054  1.9662  0.9842 -1.0077
    1POPC   H6Y  103   5.435   3.276   4.953  0.0196  0.1898  1.1309
    1POPC   C37  104   5.575   3.141   4.839 -0.1766 -0.2459 -0.3039
    1POPC   H7X  105   5.609   3.036   4.850 -0.5987 -0.2622  1.0164
    1POPC   H7Y  106   5.665   3.205   4.850 -0.1621 -0.3994  0.6290
    1POPC   C38  107   5.504   3.158   4.702  0.3363  0.3353  0.2398
    1POPC   H8X  108   5.404   3.110   4.703  0.8269 -0.7633  1.9618
    1POPC   H8Y  109   5.551   3.102   4.619 -2.9785 -0.8679 -0.9661
    1POPC   C39  110   5.492   3.314   4.663 -0.0018 -0.5108 -0.2361
    1POPC   H9X  111   5.580   3.368   4.703  0.9142 -3.0798  1.4280
    1POPC   H9Y  112   5.394   3.346   4.705  0.3642 -1.3912  1.3420
    1POPC  C310  113   5.483   3.329   4.510 -0.4747  0.2878 -0.1252
    1POPC  H10X  114   5.395   3.267   4.483 -0.1491  0.1684 -0.9354
    1POPC  H10Y  115   5.574   3.286   4.462 -0.1247  1.3063 -0.3893
    1POPC  C311  116   5.461   3.470   4.452 -0.2409  0.8467 -0.1799
    1POPC  H11X  117   5.554   3.525   4.475  0.9229 -1.6252  1.4388
    1POPC  H11Y  118   5.368   3.516   4.493  0.1450  1.1962  0.3120
    1POPC  C312  119   5.424   3.475   4.305 -0.4335 -0.0065 -0.7269
    1POPC  H12X  120   5.323   3.431   4.289 -0.7498  0.5528 -0.2782
    1POPC  H12Y  121   5.487   3.403   4.249  0.7375  1.0042 -0.7344
    1POPC  C313  122   5.420   3.613   4.246  0.5936 -0.4639  0.4540
    1POPC  H13X  123   5.523   3.647   4.222  0.1012  0.5737 -0.3087
    1POPC  H13Y  124   5.367   3.686   4.311  1.4859 -0.7412  1.5240
    1POPC  C314  125   5.353   3.596   4.109  0.8390 -0.6160 -0.6360
    1POPC  H14X  126   5.317   3.692   4.068 -2.0610 -0.2469  2.3635
    1POPC  H14Y  127   5.255   3.548   4.128  1.1036 -0.1508  2.2229
    1POPC  C315  128   5.427   3.510   4.002  0.1199  0.2668  0.4876
    1POPC  H15X  129   5.460   3.411   4.042  0.4050  0.0936 -0.1724
    1POPC  H15Y  130   5.515   3.575   3.984  1.6588 -1.9891 -0.5508
    1POPC  C316  131   5.350   3.494   3.870  0.1141 -0.2690 -0.2207
    1POPC  H16X  132   5.427   3.490   3.790  0.0892 -0.4357 -0.2362
    1POPC  H16Y  133   5.295   3.586   3.841 -1.4154 -0.4823  1.8148
    1POPC  H16Z  134   5.284   3.405   3.876 -1.9438  1.2685  1.7715
    2POPC     N  135   4.478   4.015   6.201 -0.1693  0.6932 -0.1852
    2POPC   C12  136   4.514   4.098   6.081 -0.1232  0.6592 -0.3896
    2POPC  H12A  137   4.616   4.074   6.056 -0.2144 -0.3448  0.1395
    2POPC  H12B  138   4.537   4.194   6.125  0.7135 -0.8705  2.7740
    2POPC   C13  139   4.351   4.041   6.253  1.2877 -0.2265 -0.0673
    2POPC  H13A  140   4.349   4.133   6.309 -1.5259  0.6142 -1.4000
    2POPC  H13B  141   4.267   4.052   6.186 -0.9748 -2.4747  2.1851
    2POPC  H13C  142   4.320   3.966   6.325  2.4928 -2.1201 -1.4300
    2POPC   C14  143   4.475   3.873   6.164  0.2303  0.1945  0.9397
    2POPC  H14A  144   4.562   3.834   6.114  0.9705 -2.0591  3.7213
    2POPC  H14B  145   4.458   3.805   6.246 -1.2899 -1.0836 -0.3513
    2POPC  H14C  146   4.389   3.863   6.099  0.9699 -3.8212  0.2815
    2POPC   C15  147   4.580   4.040   6.307  0.4585 -0.0065  0.3436
    2POPC  H15A  148   4.668   3.981   6.287 -0.2784 -1.7048  1.8084
    2POPC  H15B  149   4.538   4.009   6.401  2.2526  1.5602  1.7367
    2POPC  H15C  150   4.600   4.145   6.325 -1.1913  0.1964  1.2234
    2POPC   C11  151   4.412   4.117   5.961 -0.0477 -0.1397  0.0246
    2POPC  H11A  152   4.468   4.162   5.875  0.0765 -1.4285 -0.5883
    2POPC  H11B  153   4.344   4.196   5.998 -0.7518 -0.1052 -1.2702
    2POPC     P  154   4.183   3.995   5.923 -0.3628  0.1694 -0.5735
    2POPC   O13  155   4.131   4.110   6.005 -0.0962  0.2976  0.7606
    2POPC   O14  156   4.136   3.859   5.968  0.4689 -0.8449  0.3032
    2POPC   O12  157   4.344   3.993   5.922  0.2016  0.2764  0.2839
    2POPC   O11  158   4.156   4.006   5.772  0.0381  0.6327 -0.1321
    2POPC    C1  159   4.236   4.042   5.658 -0.1997  0.1763 -0.2126
    2POPC    HA  160   4.246   3.946   5.603  1.0853 -0.3754  0.9246
    2POPC    HB  161   4.338   4.083   5.675  0.4503 -1.2261 -0.5933
    2POPC    C2  162   4.161   4.133   5.558 -0.2215  0.2021 -0.4812
    2POPC    HS  163   4.155   4.237   5.597  0.4067 -0.1831  0.6850
    2POPC   O21  164   4.031   4.083   5.539 -0.0009  0.1943  0.5030
    2POPC   C21  165   3.933   4.173   5.512 -0.5525  0.4131  0.4504
    2POPC   O22  166   3.946   4.291   5.531  0.4125 -0.1529  0.1264
    2POPC   C22  167   3.816   4.103   5.452 -0.0335  1.0165 -0.4685
    2POPC   H2R  168   3.756   4.064   5.538  0.7405  2.9223  1.0023
    2POPC   H2S  169   3.854   4.009   5.407  1.1259  0.3963  1.6708
    2POPC    C3  170   4.233   4.137   5.424 -0.1653  0.1239  0.1500
    2POPC    HX  171   4.223   4.035   5.380 -0.2809 -0.0659  0.6091
    2POPC    HY  172   4.340   4.163   5.436 -0.1851  0.6209 -0.6723
    2POPC   O31  173   4.157   4.223   5.327 -0.4709 -0.5689 -0.5757
    2POPC   C31  174   4.208   4.346   5.310 -0.4393 -0.7570  0.6937
    2POPC   O32  175   4.307   4.388   5.364  0.3915  0.0326  0.3078
    2POPC   C32  176   4.127   4.408   5.191  0.3151  0.2053 -0.1294
    2POPC   H2X  177   4.036   4.454   5.236  0.4083 -0.8635  1.2175
    2POPC   H2Y  178   4.097   4.324   5.125  1.9538 -0.8279  0.3719
    2POPC   C23  179   3.722   4.197   5.382 -0.1231  0.0121  0.5225
    2POPC   H3R  180   3.717   4.294   5.437  1.8198  1.3280 -1.4770
    2POPC   H3S  181   3.619   4.153   5.379  0.0946 -0.6117  1.6100
    2POPC   C24  182   3.768   4.222   5.239 -0.2622  0.1111  0.2498
    2POPC   H4R  183   3.869   4.267   5.254  0.4970 -1.8353  1.4271
    2POPC   H4S  184   3.704   4.307   5.206  0.1429  0.9429  1.5101
    2POPC   C25  185   3.757   4.110   5.141 -0.4362  0.6003  0.1937
    2POPC   H5R  186   3.657   4.062   5.154  0.2679 -0.9146  0.2448
    2POPC   H5S  187   3.838   4.037   5.165 -1.3199 -1.0494 -1.5171
    2POPC   C26  188   3.785   4.144   4.997  0.4389  0.8581 -0.7349
    2POPC   H6R  189   3.895   4.143   4.977  0.7032 -0.1777  0.6561
    2POPC   H6S  190   3.758   4.243   4.955  0.1755  0.1550 -2.3080
    2POPC   C27  191   3.709   4.041   4.900 -0.1703  0.1801  0.0315
    2POPC   H7R  192   3.600   4.061   4.906 -0.4047 -1.0135 -0.0100
    2POPC   H7S  193   3.735   3.935   4.923  1.1769  0.2526 -1.0402
    2POPC   C28  194   3.757   4.064   4.754  0.0363 -0.9356 -0.0251
    2POPC   H8R  195   3.761   4.171   4.727  1.7334 -1.7336 -3.4140
    2POPC   H8S  196   3.689   4.014   4.682  0.3008  0.5557 -1.3589
    2POPC   C29  197   3.901   4.013   4.735 -0.5191 -1.1730  0.1434
    2POPC   H91  198   3.984   4.081   4.759 -0.7072 -0.3480 -1.4140
    2POPC  C210  199   3.928   3.893   4.687  0.2536  0.1352 -0.3329
    2POPC  H101  200   4.029   3.854   4.708  0.3848  1.4469  1.6814
    2POPC  C211  201   3.832   3.792   4.623  0.5150 -0.8946  0.5403
    2POPC  H11R  202   3.729   3.835   4.623  1.2457  0.9477  1.0944
    2POPC  H11S  203   3.819   3.692   4.669 -1.9032  0.1979  2.4481
    2POPC  C212  204   3.884   3.768   4.485 -0.7729 -0.7312 -0.1305
    2POPC  H12R  205   3.982   3.716   4.490 -1.2339 -1.5281  0.9077
    2POPC  H12S  206   3.890   3.864   4.429  1.4454 -0.7328  0.0050
    2POPC  C213  207   3.790   3.680   4.406  0.1759  0.5823 -0.9059
    2POPC  H13R  208   3.720   3.616   4.464  0.0610  0.6610 -0.9590
    2POPC  H13S  209   3.851   3.610   4.345 -1.0913 -0.0066 -1.5450
    2POPC  C214  210   3.708   3.757   4.303 -0.8513 -0.1500 -0.0292
    2POPC  H14R  211   3.777   3.805   4.230 -0.6615 -1.5712 -0.8155
    2POPC  H14S  212   3.646   3.832   4.357  1.3185  0.8151  1.2732
    2POPC  C215  213   3.610   3.667   4.222 -0.9720  0.2805  0.4994
    2POPC  H15R  214   3.534   3.626   4.293 -2.8251  1.5319 -0.6747
    2POPC  H15S  215   3.669   3.582   4.183 -2.8913 -1.8790  2.0063
    2POPC  C216  216   3.536   3.738   4.106 -0.3954 -0.0848 -0.4156
    2POPC  H16R  217   3.608   3.772   4.028  0.6116  1.5561  1.1433
    2POPC  H16S  218   3.496   3.828   4.158 -1.1555 -0.5707 -0.1423
    2POPC  C217  219   3.424   3.649   4.048  0.3046 -0.4876  0.7900
    2POPC  H17R  220   3.350   3.626   4.128  0.5910 -2.0648  0.6205
    2POPC  H17S  221   3.470   3.553   4.016 -0.4429 -1.0550  1.3711
    2POPC  C218  222   3.343   3.717   3.938 -0.1887  0.4290 -0.1631
    2POPC  H18R  223   3.415   3.791   3.897  0.4023 -0.1338 -0.1629
    2POPC  H18S  224   3.257   3.775   3.976 -0.0629  0.3153  0.3015
    2POPC  H18T  225   3.311   3.650   3.855 -2.9565  0.3747  0.8504
    2POPC   C33  226   4.213   4.506   5.106 -0.1995  0.5438 -0.1544
    2POPC   H3X  227   4.271   4.572   5.174  0.1078  0.2035 -0.0864
    2POPC   H3Y  228   4.147   4.568   5.042 -1.6214 -1.2339 -0.4758
    2POPC   C34  229   4.321   4.434   5.019 -0.1726 -0.9506  0.3044
    2POPC   H4X  230   4.342   4.336   5.065 -1.2840 -0.3750  2.1500
    2POPC   H4Y  231   4.409   4.502   5.025 -0.8282 -0.1507  1.2247
    2POPC   C35  232   4.269   4.419   4.874  0.0265 -0.0536 -0.1982
    2POPC   H5X  233   4.335   4.359   4.807 -0.2194 -1.2454  0.5892
    2POPC   H5Y  234   4.265   4.521   4.831  2.5587  0.9223  1.6649
    2POPC   C36  235   4.135   4.351   4.863 -0.5132 -0.1966 -0.5515
    2POPC   H6X  236   4.056   4.402   4.922 -0.6847 -0.3745 -0.6233
    2POPC   H6Y  237   4.145   4.248   4.904  0.1791 -0.1644 -0.6367
    2POPC   C37  238   4.072   4.339   4.729 -0.4889 -0.4448  0.0090
    2POPC   H7X  239   4.063   4.435   4.674  0.8074  0.5181  1.4151
    2POPC   H7Y  240   3.974   4.287   4.740 -0.1960 -0.4885  3.2558
    2POPC   C38  241   4.151   4.249   4.631 -0.5489  0.3456 -0.5985
    2POPC   H8X  242   4.187   4.153   4.674 -0.6073  0.3619 -0.5121
    2POPC   H8Y  243   4.246   4.301   4.604 -0.8013  0.1435 -1.9158
    2POPC   C39  244   4.086   4.229   4.495 -0.0174  0.2604  0.3266
    2POPC   H9X  245   4.059   4.326   4.449  1.0007 -0.0004 -0.8740
    2POPC   H9Y  246   3.991   4.174   4.512 -0.8821  1.0359 -1.8122
    2POPC  C310  247   4.174   4.138   4.409  0.5918 -0.3343  0.4653
    2POPC  H10X  248   4.202   4.045   4.463 -0.0251 -0.9123 -0.1947
    2POPC  H10Y  249   4.264   4.199   4.387 -0.3449 -0.1688 -3.9170
    2POPC  C311  250   4.097   4.091   4.290  0.4418 -0.5253 -0.1156
    2POPC  H11X  251   4.076   4.188   4.241  1.2457 -0.5373 -0.4982
    2POPC  H11Y  252   4.009   4.035   4.326 -0.4079  0.7096 -0.2123
    2POPC  C312  253   4.171   4.005   4.192 -0.0951  0.0340  0.8370
    2POPC  H12X  254   4.178   3.899   4.222 -0.9850 -1.1840 -2.7442
    2POPC  H12Y  255   4.271   4.052   4.180  0.5624 -0.6588  3.1892
    2POPC  C313  256   4.090   3.991   4.060  0.4578 -0.1130  0.0105
    2POPC  H13X  257   4.065   4.084   4.005 -2.3103 -0.3228  0.7883
    2POPC  H13Y  258   3.993   3.949   4.092  0.7167 -0.5656  0.2105
    2POPC  C314  259   4.158   3.901   3.957  0.7652  0.8255  0.2575
    2POPC  H14X  260   4.193   3.804   3.997 -1.4507 -0.3130 -0.4411
    2POPC  H14Y  261   4.251   3.945   3.914  0.6062  0.7631 -0.1534
    2POPC  C315  262   4.056   3.864   3.846  1.0839 -0.2477  0.2505
    2POPC  H15X  263   4.110   3.799   3.773 -0.5015 -0.5680 -0.6712
    2POPC  H15Y  264   4.016   3.958   3.800 -1.4074 -0.4937  1.7790
    2POPC  C316  265   3.930   3.782   3.890  0.3353 -0.7356 -0.1322
    2POPC  H16X  266   3.858   3.762   3.808  0.6272  0.3132 -0.6610
    2POPC  H16Y  267   3.881   3.829   3.978  0.6924  0.6905 -0.6561
    2POPC  H16Z  268   3.959   3.682   3.928 -0.1471 -2.0326 -2.9428
    3POPC     N  269   2.802   4.612   5.880  0.4019 -0.7688  0.5802
    3POPC   C12  270   2.650   4.638   5.850  0.1262  0.1288 -0.9160
    3POPC  H12A  271   2.600   4.544   5.833  0.3962 -0.0040 -0.9688
    3POPC  H12B  272   2.645   4.678   5.750 -0.5863 -1.3958 -1.5196
    3POPC   C13  273   2.822   4.534   5.997  0.7250 -0.2303 -0.6890
    3POPC  H13A  274   2.785   4.433   5.989 -0.6661  0.2489 -0.4921
    3POPC  H13B  275   2.924   4.539   6.033  1.2492 -3.1769 -1.4708
    3POPC  H13C  276   2.761   4.582   6.072  0.0044 -3.8499  1.2838
    3POPC   C14  277   2.858   4.539   5.768 -0.2196  0.6141  0.3759
    3POPC  H14A  278   2.813   4.442   5.773 -0.2399  0.5194 -1.1928
    3POPC  H14B  279   2.847   4.584   5.670 -1.0246  0.0678  0.2094
    3POPC  H14C  280   2.962   4.518   5.790  0.4684  0.0097 -2.9565
    3POPC   C15  281   2.877   4.745   5.879  0.5817  0.0556 -0.1063
    3POPC  H15A  282   2.825   4.819   5.939 -0.3773  0.1308 -0.9988
    3POPC  H15B  283   2.885   4.784   5.778 -1.5758  2.5806  0.5826
    3POPC  H15C  284   2.977   4.719   5.910 -0.0061 -1.8536  0.3271
    3POPC   C11  285   2.557   4.720   5.948  0.0646  0.0692 -0.9149
    3POPC  H11A  286   2.559   4.668   6.046  0.0817  0.9380 -0.4539
    3POPC  H11B  287   2.449   4.708   5.923 -0.1517  2.2927 -1.1881
    3POPC     P  288   2.554   4.956   5.848 -0.3048 -0.2406 -0.2376
    3POPC   O13  289   2.615   5.088   5.886 -0.1558 -0.4872  0.6298
    3POPC   O14  290   2.410   4.964   5.830  0.6654  0.4214  0.7138
    3POPC   O12  291   2.594   4.855   5.958  0.1369  0.1310  0.5910
    3POPC   O11  292   2.621   4.904   5.713  0.0740  0.0167 -0.2985
    3POPC    C1  293   2.736   4.961   5.648  0.3568 -0.3615  0.3950
    3POPC    HA  294   2.802   4.879   5.613  1.0920  0.7570 -0.9515
    3POPC    HB  295   2.785   5.030   5.720 -1.4066  1.7973 -0.3290
    3POPC    C2  296   2.685   5.055   5.527 -0.3363 -0.4843 -0.3177
    3POPC    HS  297   2.603   5.117   5.569  0.3630 -0.9835  1.9483
    3POPC   O21  298   2.632   4.973   5.424  0.1562  0.0601 -0.3539
    3POPC   C21  299   2.547   5.039   5.338 -0.1281 -0.5400 -0.9074
    3POPC   O22  300   2.524   5.160   5.348  0.6051 -0.1325  0.0726
    3POPC   C22  301   2.483   4.930   5.253  0.1587 -0.4557  0.5825
    3POPC   H2R  302   2.396   4.901   5.315  0.5130 -1.2689  0.7119
    3POPC   H2S  303   2.554   4.845   5.239 -0.4381 -0.6442 -1.5373
    3POPC    C3  304   2.810   5.138   5.478  0.2747  0.2239  0.1766
    3POPC    HX  305   2.854   5.196   5.562 -0.6855 -1.4115  1.8828
    3POPC    HY  306   2.768   5.208   5.402  0.8567 -0.6595 -0.9703
    3POPC   O31  307   2.904   5.049   5.415  0.2496  0.5022 -0.8805
    3POPC   C31  308   3.003   5.119   5.373 -0.1701 -0.3665  0.4386
    3POPC   O32  309   3.023   5.240   5.387  0.0293  0.6095  0.5871
    3POPC   C32  310   3.106   5.024   5.306  0.5685 -0.2449 -0.4897
    3POPC   H2X  311   3.137   4.969   5.397 -0.6242  1.4317  1.0253
    3POPC   H2Y  312   3.185   5.096   5.276  0.1137  0.3387 -0.3255
    3POPC   C23  313   2.449   4.976   5.108  0.3794 -0.1695  0.6305
    3POPC   H3R  314   2.370   5.053   5.120  0.6165  0.3125 -0.7457
    3POPC   H3S  315   2.404   4.886   5.060  2.8162 -0.6905 -0.8619
    3POPC   C24  316   2.569   5.011   5.017  0.4404 -0.3762 -0.3586
    3POPC   H4R  317   2.659   4.973   5.071  1.4114  0.6405 -1.2026
    3POPC   H4S  318   2.572   5.122   5.023  2.3929 -0.4656  3.0932
    3POPC   C25  319   2.550   4.964   4.874 -0.1569  0.5237  0.1202
    3POPC   H5R  320   2.500   4.867   4.857  2.4846 -0.3037 -4.8238
    3POPC   H5S  321   2.647   4.933   4.830 -0.6667 -2.4385  0.8585
    3POPC   C26  322   2.485   5.068   4.781  0.5358  0.3678  0.0495
    3POPC   H6R  323   2.536   5.166   4.764  0.8021  0.2921  0.4012
    3POPC   H6S  324   2.384   5.088   4.823 -0.5593 -1.1859 -1.7224
    3POPC   C27  325   2.466   5.024   4.636  0.9955 -0.0555 -0.3673
    3POPC   H7R  326   2.399   5.104   4.598  2.2752 -0.2946 -3.4345
    3POPC   H7S  327   2.415   4.926   4.641  0.5005  0.2776  3.0507
    3POPC   C28  328   2.597   5.013   4.549 -0.4293 -0.3652 -0.3392
    3POPC   H8R  329   2.682   4.956   4.591  0.6208  1.1463 -0.3428
    3POPC   H8S  330   2.643   5.112   4.528  0.7527 -0.7848  0.1844
    3POPC   C29  331   2.564   4.954   4.419  0.2142 -0.3257 -0.4176
    3POPC   H91  332   2.487   5.009   4.363 -0.0907  0.1466  0.4507
    3POPC  C210  333   2.596   4.831   4.375  0.3303 -0.7816  0.5997
    3POPC  H101  334   2.546   4.791   4.286  1.8597 -1.3074 -0.0534
    3POPC  C211  335   2.683   4.734   4.450 -0.8272 -0.7614  0.1919
    3POPC  H11R  336   2.630   4.692   4.539 -1.0913  1.1397  0.9813
    3POPC  H11S  337   2.771   4.781   4.498 -1.6366  0.6263  0.3546
    3POPC  C212  338   2.739   4.607   4.370  0.0527 -0.3455 -0.8625
    3POPC  H12R  339   2.761   4.635   4.265 -1.1152  1.2153 -0.7269
    3POPC  H12S  340   2.656   4.534   4.367 -2.1921  2.0796 -1.5676
    3POPC  C213  341   2.865   4.546   4.433  0.1289  0.2267 -0.3606
    3POPC  H13R  342   2.945   4.612   4.473 -1.2159  2.0135 -0.4817
    3POPC  H13S  343   2.905   4.479   4.354 -0.6858 -1.9671  0.9851
    3POPC  C214  344   2.831   4.434   4.536  0.6288  0.3065  0.3496
    3POPC  H14R  345   2.753   4.365   4.499  0.8108  0.8299 -1.0667
    3POPC  H14S  346   2.763   4.482   4.609 -1.0902 -0.4170 -0.7332
    3POPC  C215  347   2.951   4.359   4.585 -0.1313  0.5860 -0.1351
    3POPC  H15R  348   3.020   4.428   4.638 -1.3872  1.3799  0.5254
    3POPC  H15S  349   3.001   4.323   4.492  3.3080 -0.1026  1.8082
    3POPC  C216  350   2.919   4.233   4.678 -0.0588 -0.2938  0.4610
    3POPC  H16R  351   3.015   4.185   4.705  1.5674  2.3216 -0.2535
    3POPC  H16S  352   2.852   4.170   4.617  1.0013  0.1538 -1.2400
    3POPC  C217  353   2.858   4.273   4.812  0.5958 -0.1790  0.0989
    3POPC  H17R  354   2.760   4.321   4.794 -1.0050 -2.9935  0.6345
    3POPC  H17S  355   2.922   4.351   4.859 -0.7153  0.6861  0.4849
    3POPC  C218  356   2.841   4.159   4.909 -0.5764  0.0447 -0.3263
    3POPC  H18R  357   2.929   4.095   4.929 -1.5569 -1.1309  0.3528
    3POPC  H18S  358   2.765   4.087   4.872 -1.0884 -0.5800  1.8397
    3POPC  H18T  359   2.801   4.194   5.007  2.1286 -0.0729  0.9115
    3POPC   C33  360   3.054   4.939   5.194  0.3671  0.0052 -0.6306
    3POPC   H3X  361   2.950   4.904   5.212  0.2714  1.2893  1.5989
    3POPC   H3Y  362   3.107   4.843   5.172 -1.4027 -0.8505 -1.4519
    3POPC   C34  363   3.045   5.003   5.054  0.0044 -0.4857 -0.3032
    3POPC   H4X  364   3.004   4.934   4.977 -0.2872 -2.1755  1.3135
    3POPC   H4Y  365   3.148   5.033   5.026  0.0792  2.0562  2.2251
    3POPC   C35  366   2.960   5.129   5.038 -0.4297 -0.2425  0.1838
    3POPC   H5X  367   3.020   5.202   5.098  1.9207 -1.6629 -0.3022
    3POPC   H5Y  368   2.858   5.118   5.080 -0.6965 -2.3510 -0.9017
    3POPC   C36  369   2.957   5.168   4.885 -0.6260  0.4771  0.2459
    3POPC   H6X  370   2.900   5.090   4.831 -1.1055  0.5933  0.5817
    3POPC   H6Y  371   3.055   5.149   4.835 -0.8810 -0.7598  0.1909
    3POPC   C37  372   2.894   5.306   4.851  0.0435  0.7205  0.4574
    3POPC   H7X  373   2.957   5.393   4.880 -0.4407  0.4748  2.3714
    3POPC   H7Y  374   2.800   5.309   4.910 -0.5593  0.2820 -0.4644
    3POPC   C38  375   2.857   5.326   4.705  0.2267  0.1119 -0.9234
    3POPC   H8X  376   2.792   5.245   4.665 -2.3809  0.9042  1.3395
    3POPC   H8Y  377   2.952   5.326   4.647  0.3592  2.5262 -0.8129
    3POPC   C39  378   2.788   5.457   4.674  0.1206 -0.4754  0.1634
    3POPC   H9X  379   2.839   5.537   4.732  0.4278 -0.2137 -0.4636
    3POPC   H9Y  380   2.687   5.464   4.719 -0.1195  1.3008 -0.5581
    3POPC  C310  381   2.786   5.488   4.524  0.8789  0.5195  0.6239
    3POPC  H10X  382   2.889   5.501   4.483 -0.0448  1.1782 -1.6578
    3POPC  H10Y  383   2.739   5.588   4.513 -2.1781 -0.5444  2.6632
    3POPC  C311  384   2.700   5.384   4.438 -0.3006 -0.0291  0.1695
    3POPC  H11X  385   2.603   5.372   4.492 -1.0423 -4.2253 -1.6667
    3POPC  H11Y  386   2.749   5.284   4.440 -1.4572 -0.7108 -2.0394
    3POPC  C312  387   2.684   5.420   4.294 -0.1086 -0.3919 -0.0868
    3POPC  H12X  388   2.660   5.330   4.234 -0.8080  0.2047 -0.7204
    3POPC  H12Y  389   2.788   5.449   4.266 -0.6962  0.7575 -1.1683
    3POPC  C313  390   2.588   5.532   4.264 -0.7302  0.7675  0.5248
    3POPC  H13X  391   2.586   5.620   4.332 -0.2180 -0.4181  2.1179
    3POPC  H13Y  392   2.481   5.501   4.264 -1.0520  1.5732 -2.1507
    3POPC  C314  393   2.613   5.599   4.129 -0.4989 -0.1314  0.2154
    3POPC  H14X  394   2.594   5.517   4.056  1.1072  0.1828 -0.6191
    3POPC  H14Y  395   2.718   5.635   4.117  0.0203 -1.4635  0.5985
    3POPC  C315  396   2.516   5.726   4.121 -0.2086 -0.0318  0.0681
    3POPC  H15X  397   2.544   5.792   4.206 -1.4046 -0.8270  1.1153
    3POPC  H15Y  398   2.414   5.684   4.135  0.1255 -0.9808 -0.2836
    3POPC  C316  399   2.513   5.805   3.992 -0.3846  0.2283  0.5442
    3POPC  H16X  400   2.612   5.852   3.972 -0.7291  0.8387  0.2246
    3POPC  H16Y  401   2.438   5.887   3.991  0.9815  1.5422  0.2515
    3POPC  H16Z  402   2.495   5.741   3.903  2.6796  0.2135 -0.1994
    4POPC     N  403   5.453   6.339   6.112  0.1360 -0.0691  0.0141
    4POPC   C12  404   5.422   6.395   5.976 -0.2001 -0.1848  0.4911
    4POPC  H12A  405   5.320   6.431   5.972  0.6520  2.2731 -0.5705
    4POPC  H12B  406   5.419   6.320   5.898 -0.1312  0.4222 -0.1021
    4POPC   C13  407   5.344   6.242   6.148 -0.0800 -0.0762 -0.1389
    4POPC  H13A  408   5.347   6.154   6.087  3.4386 -1.2808  1.5128
    4POPC  H13B  409   5.367   6.203   6.246 -0.5498  2.8180  1.2607
    4POPC  H13C  410   5.242   6.280   6.153 -0.6095 -1.5583  2.1585
    4POPC   C14  411   5.580   6.258   6.108 -0.0311  0.2951 -0.8418
    4POPC  H14A  412   5.586   6.184   6.029  2.2936  0.4154 -0.8353
    4POPC  H14B  413   5.662   6.327   6.097 -1.1103  1.2860 -3.3538
    4POPC  H14C  414   5.597   6.214   6.205  0.8672  0.4943 -0.9050
    4POPC   C15  415   5.453   6.445   6.215 -0.2298 -0.6052  0.4610
    4POPC  H15A  416   5.522   6.523   6.187  1.8620 -1.6257  2.4766
    4POPC  H15B  417   5.477   6.409   6.314 -1.5392 -1.0053  0.6518
    4POPC  H15C  418   5.360   6.500   6.206 -0.0698 -0.1294  1.5873
    4POPC   C11  419   5.525   6.508   5.923 -0.6004 -0.0543  0.5298
    4POPC  H11A  420   5.510   6.527   5.815 -0.9667 -1.3020  0.3472
    4POPC  H11B  421   5.629   6.471   5.936 -0.4517 -0.1185 -0.7002
    4POPC     P  422   5.394   6.717   6.003 -0.2336 -0.1640  0.1745
    4POPC   O13  423   5.440   6.858   6.001  0.2148  0.1275  0.6498
    4POPC   O14  424   5.312   6.683   6.115  0.3834  0.3452 -0.5328
    4POPC   O12  425   5.524   6.631   5.997 -0.7781 -0.1086 -0.6263
    4POPC   O11  426   5.317   6.691   5.863  0.6299 -0.5108  0.0540
    4POPC    C1  427   5.327   6.795   5.764  0.1957  0.0958 -0.4728
    4POPC    HA  428   5.430   6.782   5.723 -0.2790 -1.7537 -1.1521
    4POPC    HB  429   5.297   6.896   5.802 -1.6468 -0.5462 -0.1266
    4POPC    C2  430   5.229   6.771   5.645  0.3807 -0.0078  0.4734
    4POPC    HS  431   5.126   6.760   5.685 -1.3955 -1.9338 -3.8967
    4POPC   O21  432   5.265   6.646   5.583  0.1659  0.0868  0.4729
    4POPC   C21  433   5.172   6.575   5.523  0.5164 -0.2320  0.7234
    4POPC   O22  434   5.052   6.595   5.524 -0.0908 -0.2404  0.0626
    4POPC   C22  435   5.247   6.466   5.445 -0.3853  0.8314  0.4445
    4POPC   H2R  436   5.349   6.451   5.485 -0.6848  0.0284  0.9337
    4POPC   H2S  437   5.271   6.495   5.341  1.3004 -1.9428 -0.0216
    4POPC    C3  438   5.233   6.884   5.544  0.3540 -0.1990  0.6382
    4POPC    HX  439   5.333   6.908   5.502  0.3712  0.4864  1.0613
    4POPC    HY  440   5.202   6.981   5.586 -1.7735 -0.1855 -0.8052
    4POPC   O31  441   5.149   6.855   5.431 -0.1649  0.1266 -0.1647
    4POPC   C31  442   5.014   6.874   5.449 -0.4749  0.0813 -0.8806
    4POPC   O32  443   4.964   6.900   5.557 -0.3497 -0.0429 -0.0549
    4POPC   C32  444   4.931   6.852   5.327 -0.2137  0.1039 -0.2790
    4POPC   H2X  445   4.927   6.746   5.293 -3.4765 -0.5113  1.5708
    4POPC   H2Y  446   4.961   6.930   5.254 -0.1189  1.9689  1.6742
    4POPC   C23  447   5.168   6.330   5.431 -0.3396 -0.3890 -0.1906
    4POPC   H3R  448   5.072   6.351   5.380 -0.7288 -2.0615 -0.2007
    4POPC   H3S  449   5.145   6.291   5.532 -0.7791 -1.5123 -0.6985
    4POPC   C24  450   5.226   6.216   5.357 -0.0652 -0.1120  0.3423
    4POPC   H4R  451   5.140   6.147   5.342 -0.9902  0.5401  2.2584
    4POPC   H4S  452   5.304   6.166   5.418  1.1843  0.4426 -0.7617
    4POPC   C25  453   5.285   6.245   5.214  0.0323 -0.0818 -0.5779
    4POPC   H5R  454   5.363   6.324   5.218  0.6148 -0.6129 -1.2226
    4POPC   H5S  455   5.200   6.284   5.153 -0.2297 -1.2744 -0.9922
    4POPC   C26  456   5.337   6.105   5.164 -0.5735 -0.3164  0.1321
    4POPC   H6R  457   5.260   6.025   5.164 -1.3957  0.4599 -0.2016
    4POPC   H6S  458   5.430   6.079   5.219 -1.6715  0.0214  2.2675
    4POPC   C27  459   5.395   6.118   5.018  0.2017  0.4259  0.1238
    4POPC   H7R  460   5.479   6.190   5.017  0.4636  0.1452 -1.5786
    4POPC   H7S  461   5.311   6.153   4.954  0.9995 -2.4190 -2.7567
    4POPC   C28  462   5.439   5.987   4.950  0.0626 -0.2757 -0.5936
    4POPC   H8R  463   5.468   6.000   4.843  0.7661 -1.9474 -0.6418
    4POPC   H8S  464   5.351   5.919   4.946 -0.1862  0.0394 -0.4963
    4POPC   C29  465   5.560   5.927   5.023  0.1356 -0.0960 -0.0689
    4POPC   H91  466   5.545   5.889   5.125  1.9716  2.8494  1.4640
    4POPC  C210  467   5.687   5.938   4.985 -0.4378 -0.6506 -0.8244
    4POPC  H101  468   5.752   5.884   5.057  0.4116  1.9334  0.4736
    4POPC  C211  469   5.748   6.018   4.871  0.4446  0.1804 -0.6064
    4POPC  H11R  470   5.790   6.112   4.912 -0.0457  0.4960 -0.8196
    4POPC  H11S  471   5.669   6.055   4.801  0.7300  2.4785  0.2057
    4POPC  C212  472   5.869   5.945   4.800 -0.5741  0.0711  0.7968
    4POPC  H12R  473   5.829   5.849   4.759 -1.9800  0.3953  1.3347
    4POPC  H12S  474   5.939   5.911   4.879 -1.3751  1.0223  1.9677
    4POPC  C213  475   5.940   6.026   4.696 -0.7403 -0.7093  0.1897
    4POPC  H13R  476   6.033   5.968   4.683 -0.6212 -0.9297  1.7811
    4POPC  H13S  477   5.974   6.121   4.742 -3.6434 -0.3496  1.8722
    4POPC  C214  478   5.860   6.063   4.567  0.0799  0.0358 -0.1856
    4POPC  H14R  479   5.777   6.122   4.611  0.5760  0.7109 -0.1374
    4POPC  H14S  480   5.823   5.967   4.524  1.2071 -0.4244 -0.1526
    4POPC  C215  481   5.938   6.140   4.456  0.1442  0.3915  0.3649
    4POPC  H15R  482   6.021   6.072   4.427  0.8998  1.8505 -1.0322
    4POPC  H15S  483   5.982   6.231   4.502  1.7956  1.8752 -3.6602
    4POPC  C216  484   5.858   6.181   4.335 -0.2440 -0.3226 -0.0700
    4POPC  H16R  485   5.825   6.278   4.378  2.7862  1.0599 -0.6154
    4POPC  H16S  486   5.770   6.113   4.331 -0.2445 -0.2857 -0.9419
    4POPC  C217  487   5.927   6.194   4.204  0.0518  0.0807  0.5769
    4POPC  H17R  488   5.967   6.100   4.161  2.3709  0.3668  1.9525
    4POPC  H17S  489   6.021   6.253   4.215  0.0120  0.0523  1.0931
    4POPC  C218  490   5.846   6.263   4.094  0.7402 -0.9484  0.3081
    4POPC  H18R  491   5.923   6.306   4.025 -0.4521  1.0292  0.1194
    4POPC  H18S  492   5.783   6.347   4.130  1.6204  0.2200 -0.7504
    4POPC  H18T  493   5.785   6.195   4.031  0.2163 -0.2667  0.0714
    4POPC   C33  494   4.787   6.899   5.349  0.7830 -0.5557  0.5075
    4POPC   H3X  495   4.788   7.001   5.391 -2.9261  0.0889 -0.6358
    4POPC   H3Y  496   4.749   6.828   5.426  1.2659 -0.3533  0.9345
    4POPC   C34  497   4.695   6.898   5.223  0.3756  0.3381  0.5461
    4POPC   H4X  498   4.587   6.904   5.251 -0.0755 -2.1432 -0.4614
    4POPC   H4Y  499   4.704   6.798   5.177 -2.5801  0.2055  0.0559
    4POPC   C35  500   4.730   7.003   5.125  0.6931 -0.1728  0.5096
    4POPC   H5X  501   4.830   6.994   5.078  0.1198 -0.0185 -0.7748
    4POPC   H5Y  502   4.732   7.097   5.185  0.7348  0.8765 -1.0718
    4POPC   C36  503   4.640   6.992   5.004  0.2368 -0.1448  0.0115
    4POPC   H6X  504   4.537   7.015   5.038 -0.2278  2.5088 -2.7218
    4POPC   H6Y  505   4.630   6.890   4.962  2.8860  0.2273 -1.7676
    4POPC   C37  506   4.671   7.086   4.888 -0.7792 -0.7803 -0.3986
    4POPC   H7X  507   4.769   7.081   4.836 -1.2047  2.0909 -1.6730
    4POPC   H7Y  508   4.683   7.180   4.946 -0.7800 -0.8307 -0.3157
    4POPC   C38  509   4.555   7.105   4.782  0.4629 -0.0548 -0.0032
    4POPC   H8X  510   4.454   7.092   4.826 -0.2030  0.2220 -1.3891
    4POPC   H8Y  511   4.567   7.030   4.701  2.3065  0.9060 -0.6759
    4POPC   C39  512   4.559   7.248   4.728 -0.4218  0.4038 -0.4639
    4POPC   H9X  513   4.668   7.269   4.731 -0.7095  2.2647 -1.4693
    4POPC   H9Y  514   4.511   7.328   4.788 -0.8225  0.4966 -0.9014
    4POPC  C310  515   4.500   7.258   4.586 -0.4990  0.7694 -0.8361
    4POPC  H10X  516   4.392   7.238   4.603 -0.7646  0.5788 -2.6118
    4POPC  H10Y  517   4.532   7.172   4.524  1.5392 -0.0946  1.2584
    4POPC  C311  518   4.526   7.388   4.515  0.6902 -0.2945  0.1562
    4POPC  H11X  519   4.635   7.387   4.494  0.1834 -2.5058 -2.9859
    4POPC  H11Y  520   4.501   7.474   4.582  0.3457 -0.4138  0.1839
    4POPC  C312  521   4.454   7.401   4.382 -0.4668  0.2804  0.0660
    4POPC  H12X  522   4.347   7.374   4.392 -0.0426 -1.1853  0.8990
    4POPC  H12Y  523   4.498   7.326   4.313 -1.2590  0.7138 -0.9378
    4POPC  C313  524   4.468   7.547   4.330 -0.4005  0.1270  0.1386
    4POPC  H13X  525   4.576   7.576   4.328 -0.2574 -0.4231 -0.6913
    4POPC  H13Y  526   4.430   7.623   4.401  1.6823  1.1747  0.2174
    4POPC  C314  527   4.403   7.579   4.192 -0.0142  0.2470  0.1300
    4POPC  H14X  528   4.306   7.527   4.200  0.2877 -0.1872  1.1469
    4POPC  H14Y  529   4.466   7.528   4.117 -1.5558  0.0152 -1.0464
    4POPC  C315  530   4.400   7.730   4.167  0.5705  0.5049  0.2616
    4POPC  H15X  531   4.488   7.779   4.213 -0.9357  2.1093  1.5876
    4POPC  H15Y  532   4.309   7.761   4.224  0.9653 -1.4490  2.0798
    4POPC  C316  533   4.377   7.761   4.021  0.1816  0.0592 -0.2304
    4POPC  H16X  534   4.469   7.743   3.962  0.4536  0.4073  0.0913
    4POPC  H16Y  535   4.325   7.855   3.993  0.8742 -0.0499 -2.0076
    4POPC  H16Z  536   4.301   7.686   3.987  1.2514 -0.0431 -2.6041
    5POPC     N  537   5.005   2.058   6.078 -0.5826  0.1380  0.3947
    5POPC   C12  538   5.135   2.138   6.081 -0.6990  0.1049  0.4271
    5POPC  H12A  539   5.144   2.168   5.977 -3.1927  0.9175  0.3961
    5POPC  H12B  540   5.216   2.069   6.104 -1.2946 -0.5099  0.7090
    5POPC   C13  541   4.982   1.985   6.207  0.0866 -0.7102 -0.5555
    5POPC  H13A  542   5.000   2.049   6.293  0.1923 -1.1390 -0.2573
    5POPC  H13B  543   4.879   1.954   6.216 -1.0086  2.3631 -1.3393
    5POPC  H13C  544   5.051   1.902   6.214 -2.1264 -2.5734  0.3343
    5POPC   C14  545   4.879   2.129   6.048  0.2379 -0.7121  0.6467
    5POPC  H14A  546   4.794   2.071   6.079 -0.1307 -0.4587  0.1319
    5POPC  H14B  547   4.866   2.212   6.116 -0.6874 -1.4098  1.3365
    5POPC  H14C  548   4.875   2.157   5.943  0.0605 -0.7052  0.6552
    5POPC   C15  549   5.033   1.949   5.983 -1.1090  0.1683 -0.3218
    5POPC  H15A  550   5.109   1.879   6.015 -0.9867 -0.3391 -1.6608
    5POPC  H15B  551   5.051   1.980   5.881 -0.0476 -0.8235 -0.4560
    5POPC  H15C  552   4.939   1.898   5.966 -0.7790 -0.7877  0.6241
    5POPC   C11  553   5.146   2.256   6.177  0.9157  0.5947  0.1693
    5POPC  H11A  554   5.251   2.291   6.180  1.0196  0.2341  1.9040
    5POPC  H11B  555   5.121   2.225   6.281 -0.7856 -0.5944 -0.5294
    5POPC     P  556   5.073   2.485   6.059 -0.0762 -0.0286 -0.1269
    5POPC   O13  557   5.166   2.578   6.133 -0.0929 -0.0368  0.3178
    5POPC   O14  558   4.941   2.535   6.027  0.5142  0.3509  1.0615
    5POPC   O12  559   5.051   2.356   6.140 -0.6481 -0.1312 -0.2969
    5POPC   O11  560   5.138   2.428   5.924 -0.5471  0.7368 -0.2712
    5POPC    C1  561   5.221   2.505   5.842  0.0005 -0.2718 -0.4808
    5POPC    HA  562   5.299   2.440   5.798 -0.3057  0.2497 -1.8718
    5POPC    HB  563   5.269   2.590   5.895 -1.6798  1.4758 -1.6062
    5POPC    C2  564   5.149   2.568   5.720 -0.6331 -0.2146  0.4279
    5POPC    HS  565   5.064   2.620   5.769 -0.3411  0.5503  0.1288
    5POPC   O21  566   5.126   2.462   5.622  0.1162 -0.4307  0.0083
    5POPC   C21  567   4.996   2.454   5.590 -1.4339 -0.8802 -0.5142
    5POPC   O22  568   4.913   2.527   5.647  0.0951 -0.1818  0.0602
    5POPC   C22  569   4.973   2.347   5.484 -0.6691 -0.2637  0.4345
    5POPC   H2R  570   4.863   2.339   5.477 -0.6460  0.6457 -1.6924
    5POPC   H2S  571   5.008   2.253   5.531 -0.6220 -0.3414  0.2451
    5POPC    C3  572   5.239   2.673   5.651  0.5322 -0.0247  0.0305
    5POPC    HX  573   5.324   2.623   5.601  1.1862 -0.7548  1.7734
    5POPC    HY  574   5.283   2.746   5.723  0.9348  0.2001 -0.4449
    5POPC   O31  575   5.170   2.736   5.543 -0.1262  0.3246 -0.2142
    5POPC   C31  576   5.083   2.824   5.585 -0.7313  0.3519  0.1552
    5POPC   O32  577   5.058   2.861   5.697 -0.7594 -0.0657 -0.2149
    5POPC   C32  578   4.990   2.842   5.464 -0.4819 -0.7303  0.2981
    5POPC   H2X  579   4.949   2.739   5.457 -0.6934 -0.8278  2.3644
    5POPC   H2Y  580   5.055   2.864   5.377  0.2638  0.8115  1.2040
    5POPC   C23  581   5.047   2.377   5.351 -0.0297 -0.2456 -0.2207
    5POPC   H3R  582   5.039   2.286   5.287 -1.7074  0.2623 -0.7907
    5POPC   H3S  583   5.155   2.399   5.366 -0.5357  2.4624  0.0888
    5POPC   C24  584   4.974   2.495   5.287 -0.0493 -0.5993 -0.1460
    5POPC   H4R  585   4.935   2.561   5.367  0.6464 -2.9065  2.2576
    5POPC   H4S  586   4.878   2.457   5.246 -0.7275 -1.0459  1.7788
    5POPC   C25  587   5.058   2.558   5.175  0.1360 -0.3156  0.4468
    5POPC   H5R  588   5.081   2.492   5.088  1.6392  0.0622  0.5179
    5POPC   H5S  589   5.154   2.605   5.206 -0.0019  0.3061 -0.0497
    5POPC   C26  590   4.974   2.670   5.107  0.0206 -0.2006  0.4381
    5POPC   H6R  591   4.959   2.758   5.173 -0.0570  0.9690 -1.0901
    5POPC   H6S  592   4.879   2.630   5.065 -0.5914 -0.7163  2.2026
    5POPC   C27  593   5.052   2.727   4.987  0.3798 -0.4768 -0.0308
    5POPC   H7R  594   5.099   2.639   4.938  0.4640  0.0368 -0.9002
    5POPC   H7S  595   5.136   2.795   5.016 -0.0917  0.4867 -0.8395
    5POPC   C28  596   4.958   2.796   4.883 -0.3346 -0.5692 -0.4541
    5POPC   H8R  597   4.868   2.731   4.876 -0.5662 -0.2372 -0.5708
    5POPC   H8S  598   5.020   2.796   4.790 -0.6933  0.3598 -0.6969
    5POPC   C29  599   4.917   2.934   4.913 -0.2711 -0.3350 -0.2266
    5POPC   H91  600   4.878   2.964   5.012 -1.7719  3.9958 -1.8991
    5POPC  C210  601   4.916   3.040   4.827  0.5361  0.5168  0.5595
    5POPC  H101  602   4.867   3.134   4.857  0.4105 -0.0067  2.0616
    5POPC  C211  603   4.946   3.048   4.678 -0.0559 -0.2344  0.2778
    5POPC  H11R  604   4.887   2.979   4.614 -1.9550 -0.0738  1.7321
    5POPC  H11S  605   5.050   3.012   4.667 -0.5215 -1.6090  0.1555
    5POPC  C212  606   4.931   3.193   4.620 -0.2226  0.4549 -0.8455
    5POPC  H12R  607   4.821   3.207   4.630 -0.4079 -1.5925  0.6222
    5POPC  H12S  608   4.953   3.189   4.511 -0.0515 -0.4276 -0.7833
    5POPC  C213  609   5.031   3.292   4.673  0.0474 -0.4390  0.2270
    5POPC  H13R  610   5.123   3.234   4.697  0.2221 -0.6750 -0.9380
    5POPC  H13S  611   4.993   3.330   4.770  2.0667  1.1296  0.4466
    5POPC  C214  612   5.061   3.413   4.575  0.3409 -0.0512 -0.3793
    5POPC  H14R  613   5.111   3.354   4.496 -1.4303  0.1774 -1.7425
    5POPC  H14S  614   5.135   3.482   4.621 -0.4940  1.1523 -0.7725
    5POPC  C215  615   4.943   3.492   4.520  0.4820 -0.0235 -0.5034
    5POPC  H15R  616   4.874   3.421   4.469 -0.2527  0.4935 -0.2541
    5POPC  H15S  617   4.966   3.568   4.443  1.1569 -0.8685 -1.1497
    5POPC  C216  618   4.865   3.571   4.621 -0.2211 -0.4098 -0.6785
    5POPC  H16R  619   4.841   3.503   4.706  1.7158 -0.4431 -0.1037
    5POPC  H16S  620   4.773   3.602   4.567 -0.7876 -1.1328 -0.1627
    5POPC  C217  621   4.935   3.698   4.680 -0.1953  0.1494 -0.1251
    5POPC  H17R  622   4.995   3.747   4.600 -1.8954  2.0017 -0.3579
    5POPC  H17S  623   5.005   3.678   4.765 -0.4278  0.7815  0.2211
    5POPC  C218  624   4.833   3.802   4.728 -0.0860 -0.1730 -0.4721
    5POPC  H18R  625   4.890   3.895   4.748 -0.3557 -0.0318 -0.3566
    5POPC  H18S  626   4.784   3.761   4.818  0.5804 -1.6499 -0.7499
    5POPC  H18T  627   4.759   3.814   4.646 -2.4204 -0.9420  1.4164
    5POPC   C33  628   4.882   2.957   5.482 -0.3438  0.2686 -0.5180
    5POPC   H3X  629   4.942   3.048   5.506  1.5321 -0.5458 -1.8499
    5POPC   H3Y  630   4.815   2.935   5.568 -1.3137  1.9060 -0.8038
    5POPC   C34  631   4.806   2.976   5.354  0.5266 -0.1369  0.4284
    5POPC   H4X  632   4.770   2.874   5.329 -0.7010  0.2459  0.5740
    5POPC   H4Y  633   4.873   3.016   5.274 -0.5558  2.2226  0.6195
    5POPC   C35  634   4.692   3.074   5.377  0.4268  0.6184  0.6810
    5POPC   H5X  635   4.740   3.171   5.400  2.7796 -0.2149 -0.4507
    5POPC   H5Y  636   4.631   3.052   5.467  1.0775 -0.3318  0.8984
    5POPC   C36  637   4.593   3.081   5.251  0.2679  0.0963 -0.2409
    5POPC   H6X  638   4.654   3.072   5.159  1.6038  2.4632  0.3324
    5POPC   H6Y  639   4.547   3.182   5.240 -0.0905 -0.1247 -0.7980
    5POPC   C37  640   4.475   2.985   5.257 -0.2422  0.3685  0.1606
    5POPC   H7X  641   4.390   3.011   5.325  0.3163 -2.7334  2.2219
    5POPC   H7Y  642   4.532   2.899   5.296 -0.0275 -0.0703 -1.0773
    5POPC   C38  643   4.415   2.940   5.122 -0.5669 -0.0807 -0.0450
    5POPC   H8X  644   4.370   3.033   5.082 -1.8235 -1.0471 -0.9549
    5POPC   H8Y  645   4.336   2.863   5.137  1.8571 -2.1431  3.9641
    5POPC   C39  646   4.516   2.886   5.019  0.2204  0.9137 -0.2525
    5POPC   H9X  647   4.547   2.787   5.059  0.9649  1.6023  0.9514
    5POPC   H9Y  648   4.616   2.935   5.017  1.0809 -0.2843  3.7174
    5POPC  C310  649   4.466   2.866   4.873 -0.4784  0.2839 -0.4477
    5POPC  H10X  650   4.430   2.963   4.832 -2.9502  0.4747  1.8395
    5POPC  H10Y  651   4.381   2.796   4.884 -0.4968  0.4698  0.7223
    5POPC  C311  652   4.571   2.798   4.798 -0.3660  0.8873  0.4106
    5POPC  H11X  653   4.622   2.713   4.848 -1.2778 -0.3815 -0.7344
    5POPC  H11Y  654   4.652   2.868   4.770 -0.1620  0.8249  0.8263
    5POPC  C312  655   4.516   2.734   4.664 -0.2658  0.2516 -0.2935
    5POPC  H12X  656   4.423   2.681   4.692  0.3286 -0.1640  0.9370
    5POPC  H12Y  657   4.582   2.656   4.620  0.2804  0.6385 -0.1765
    5POPC  C313  658   4.494   2.842   4.556 -0.0503  0.7498 -0.4974
    5POPC  H13X  659   4.597   2.863   4.519 -1.1530  0.0558 -4.3630
    5POPC  H13Y  660   4.439   2.934   4.584 -1.5937 -0.0027 -0.9551
    5POPC  C314  661   4.412   2.804   4.430  0.2384  1.1164 -0.1175
    5POPC  H14X  662   4.316   2.757   4.461  0.3478 -0.4264 -1.9287
    5POPC  H14Y  663   4.462   2.727   4.368 -2.9738 -1.8446  0.6639
    5POPC  C315  664   4.375   2.922   4.336 -0.0594 -0.3562  0.5755
    5POPC  H15X  665   4.372   2.915   4.226 -2.1576  1.3150  0.4582
    5POPC  H15Y  666   4.456   2.995   4.357 -0.3534 -0.2963  1.5939
    5POPC  C316  667   4.241   2.997   4.381  0.3025  0.2069 -0.0164
    5POPC  H16X  668   4.217   3.073   4.303  1.7192  0.1828 -0.5013
    5POPC  H16Y  669   4.264   3.049   4.476 -0.7313  1.9621 -0.6764
    5POPC  H16Z  670   4.160   2.921   4.386  0.3993  0.0481 -0.6856
    6POPC     N  671   2.363   4.126   6.290  0.3093 -0.3505  0.0672
    6POPC   C12  672   2.343   4.249   6.197 -0.1509  0.5404 -0.4104
    6POPC  H12A  673   2.386   4.336   6.244  0.0700  0.0841  0.2297
    6POPC  H12B  674   2.238   4.267   6.182 -0.4475 -0.1606  0.7492
    6POPC   C13  675   2.312   4.166   6.428 -0.0367  0.7612 -0.6583
    6POPC  H13A  676   2.369   4.245   6.474  1.4561 -1.3422  1.3574
    6POPC  H13B  677   2.211   4.206   6.429 -0.8443 -1.1643 -0.5810
    6POPC  H13C  678   2.320   4.086   6.500  0.1383  1.1318 -0.2587
    6POPC   C14  679   2.291   4.011   6.231 -0.0774  0.3791 -0.8480
    6POPC  H14A  680   2.313   3.916   6.278  1.0690  0.5590 -0.9933
    6POPC  H14B  681   2.186   4.033   6.228 -0.1677  0.0853 -0.0533
    6POPC  H14C  682   2.314   3.998   6.126 -1.7007 -0.0380 -1.1741
    6POPC   C15  683   2.509   4.090   6.299  0.4556  0.3406  0.1105
    6POPC  H15A  684   2.523   3.995   6.348  0.2404  0.9491  1.4102
    6POPC  H15B  685   2.564   4.163   6.357 -1.9900  2.1454  0.3165
    6POPC  H15C  686   2.554   4.074   6.203 -0.9973 -1.6631 -0.2986
    6POPC   C11  687   2.411   4.235   6.054 -0.2787 -0.0388  0.0353
    6POPC  H11A  688   2.383   4.322   5.991 -0.8461  0.8332  1.4325
    6POPC  H11B  689   2.359   4.149   6.007 -1.1339 -0.6851  2.0720
    6POPC     P  690   2.639   4.196   5.921 -0.0818  0.0319 -0.0282
    6POPC   O13  691   2.582   4.071   5.862 -0.2496 -0.0183 -0.4355
    6POPC   O14  692   2.778   4.188   5.955 -0.7869  0.4327 -0.2081
    6POPC   O12  693   2.556   4.225   6.052 -0.3037  1.0413  0.0776
    6POPC   O11  694   2.621   4.316   5.817 -0.3081  0.0650 -0.0386
    6POPC    C1  695   2.551   4.312   5.696 -0.2441  0.1833  0.5988
    6POPC    HA  696   2.546   4.411   5.648 -0.7556 -0.5655 -0.9434
    6POPC    HB  697   2.447   4.276   5.712  0.3600 -2.2051 -0.4207
    6POPC    C2  698   2.609   4.229   5.581  0.0201  0.8398 -0.1358
    6POPC    HS  699   2.632   4.127   5.618  3.2700  1.7119  0.5433
    6POPC   O21  700   2.734   4.284   5.531  0.1011  0.3196 -0.2176
    6POPC   C21  701   2.804   4.205   5.461 -0.0456  0.1917 -0.0087
    6POPC   O22  702   2.804   4.084   5.457 -0.8243 -0.0134 -0.2178
    6POPC   C22  703   2.892   4.297   5.370 -0.3128 -0.1768 -0.5275
    6POPC   H2R  704   2.950   4.352   5.446 -2.2921 -0.5569  1.3551
    6POPC   H2S  705   2.828   4.378   5.329  1.4230  2.8324  2.2790
    6POPC    C3  706   2.501   4.218   5.462 -0.0879  0.4426  0.0412
    6POPC    HX  707   2.473   4.324   5.444  0.9620  0.9029  0.9785
    6POPC    HY  708   2.405   4.181   5.505 -0.4221 -0.4710 -1.4118
    6POPC   O31  709   2.545   4.140   5.352 -0.2048  0.0471 -0.0646
    6POPC   C31  710   2.536   4.012   5.366 -0.0561 -0.5710  0.2742
    6POPC   O32  711   2.485   3.945   5.458 -0.6266  0.2451  0.0150
    6POPC   C32  712   2.588   3.959   5.237 -0.3257 -0.4374 -0.4692
    6POPC   H2X  713   2.606   3.850   5.249  1.6407 -0.4376 -2.8127
    6POPC   H2Y  714   2.689   3.998   5.212 -1.5505  1.9362 -2.0708
    6POPC   C23  715   2.979   4.223   5.264 -0.0602 -0.6985 -0.2456
    6POPC   H3R  716   2.913   4.160   5.202  0.0404 -1.1618  0.1103
    6POPC   H3S  717   3.066   4.172   5.312  1.1657  2.5058  1.2882
    6POPC   C24  718   3.042   4.322   5.163  0.1218  1.2042  0.5016
    6POPC   H4R  719   3.087   4.400   5.229  0.6080  2.2051 -0.9706
    6POPC   H4S  720   2.966   4.376   5.103 -0.8684  0.3530  0.9501
    6POPC   C25  721   3.151   4.267   5.078 -0.2194  1.0298 -0.0965
    6POPC   H5R  722   3.110   4.212   4.991  0.3696 -4.9694  2.9303
    6POPC   H5S  723   3.215   4.186   5.121  0.6360 -0.0836 -3.2275
    6POPC   C26  724   3.244   4.373   5.019  0.1483 -0.1573 -0.4172
    6POPC   H6R  725   3.308   4.413   5.101 -0.7179 -2.5980  1.6106
    6POPC   H6S  726   3.183   4.460   4.987  2.0632  1.4035  0.0100
    6POPC   C27  727   3.345   4.324   4.918  0.0080 -0.4013  0.1975
    6POPC   H7R  728   3.409   4.245   4.964  2.3358 -0.1571 -2.3743
    6POPC   H7S  729   3.422   4.404   4.913 -1.1506  0.7867  0.8859
    6POPC   C28  730   3.297   4.282   4.775 -0.0083 -0.1360 -0.0041
    6POPC   H8R  731   3.250   4.374   4.736 -0.1118  0.5102  1.5669
    6POPC   H8S  732   3.215   4.210   4.793 -2.8861  2.2116 -2.7775
    6POPC   C29  733   3.403   4.211   4.691 -0.0054 -0.1905 -0.3652
    6POPC   H91  734   3.470   4.135   4.734 -1.6839 -0.4911  1.8582
    6POPC  C210  735   3.420   4.237   4.559  0.7566  0.3425 -0.3554
    6POPC  H101  736   3.492   4.172   4.506  0.2854 -2.3416  2.0836
    6POPC  C211  737   3.333   4.316   4.465  0.1474 -0.0479  0.0962
    6POPC  H11R  738   3.232   4.324   4.510 -0.6730  0.3869 -1.7380
    6POPC  H11S  739   3.313   4.267   4.368  1.8098 -1.6000  0.4762
    6POPC  C212  740   3.373   4.455   4.423 -0.5237 -0.5586  0.0016
    6POPC  H12R  741   3.428   4.453   4.327  2.4084  0.4227  1.5647
    6POPC  H12S  742   3.438   4.509   4.494 -0.8907  0.5954 -0.5253
    6POPC  C213  743   3.256   4.539   4.390  0.5319 -1.0561 -0.9876
    6POPC  H13R  744   3.202   4.556   4.486  0.3035  0.4491 -1.3576
    6POPC  H13S  745   3.194   4.487   4.314  0.7506 -0.5161 -1.5391
    6POPC  C214  746   3.301   4.674   4.345  0.0074 -0.6198  0.3401
    6POPC  H14R  747   3.385   4.664   4.274 -2.2291 -2.0739 -2.3289
    6POPC  H14S  748   3.337   4.727   4.436 -2.0326 -0.0336  0.8723
    6POPC  C215  749   3.196   4.759   4.276  0.3124  0.1206 -0.4202
    6POPC  H15R  750   3.128   4.688   4.225 -1.6614 -0.7580  3.0787
    6POPC  H15S  751   3.248   4.826   4.204 -0.6837  0.6946 -0.6174
    6POPC  C216  752   3.116   4.846   4.374  0.1278 -0.0776  0.0619
    6POPC  H16R  753   3.190   4.918   4.415  1.5275 -0.6694 -1.3146
    6POPC  H16S  754   3.051   4.792   4.447 -1.6255  0.5170 -1.0004
    6POPC  C217  755   3.012   4.937   4.295  0.1143  0.1845 -0.1547
    6POPC  H17R  756   2.947   4.881   4.224  0.3974 -0.3577  0.0074
    6POPC  H17S  757   3.064   5.006   4.226 -0.3706  1.0533  0.3311
    6POPC  C218  758   2.917   5.020   4.385  0.3959  0.2149  0.7097
    6POPC  H18R  759   2.834   5.066   4.326 -0.1151  0.9136  1.9289
    6POPC  H18S  760   2.975   5.101   4.434 -0.9923  0.1504  2.5801
    6POPC  H18T  761   2.872   4.961   4.468  1.9527 -1.3333  0.4964
    6POPC   C33  762   2.497   3.980   5.122 -0.1390  0.2011  0.3193
    6POPC   H3X  763   2.486   4.087   5.094 -0.1483  0.1700  0.2052
    6POPC   H3Y  764   2.393   3.944   5.142 -0.8740  0.9318 -1.9203
    6POPC   C34  765   2.539   3.902   4.991 -0.3589  0.1449 -0.4595
    6POPC   H4X  766   2.484   3.807   4.974  1.7338 -1.0650 -0.7563
    6POPC   H4Y  767   2.643   3.868   5.009 -0.2632  0.3563 -0.6126
    6POPC   C35  768   2.518   4.001   4.871 -0.0910 -0.6648  0.8008
    6POPC   H5X  769   2.573   4.097   4.867 -1.3147  0.0398  0.1349
    6POPC   H5Y  770   2.413   4.037   4.879 -0.2153 -0.2603 -1.7801
    6POPC   C36  771   2.546   3.936   4.733 -0.6461 -0.3155  0.2348
    6POPC   H6X  772   2.485   3.847   4.710 -0.0907 -0.3271 -1.3560
    6POPC   H6Y  773   2.651   3.899   4.742  0.1604  1.7661  0.1651
    6POPC   C37  774   2.532   4.040   4.615  0.0154 -0.0721 -0.2013
    6POPC   H7X  775   2.570   4.138   4.651 -1.3639  0.2271  0.5106
    6POPC   H7Y  776   2.421   4.039   4.603  0.0524 -1.9121 -0.7066
    6POPC   C38  777   2.589   3.987   4.480  0.5040  0.0620  0.5454
    6POPC   H8X  778   2.559   3.880   4.479  0.9232 -0.0692  1.3705
    6POPC   H8Y  779   2.700   3.978   4.482  0.5010 -2.0438 -1.8987
    6POPC   C39  780   2.541   4.078   4.366  0.4222  0.0253  0.2655
    6POPC   H9X  781   2.580   4.181   4.377  0.8343 -0.3055  2.2163
    6POPC   H9Y  782   2.435   4.078   4.397  1.0780  0.8511  2.7112
    6POPC  C310  783   2.570   4.030   4.222  0.0359 -0.4399  0.8645
    6POPC  H10X  784   2.543   3.924   4.201 -1.8674  0.0116  0.8515
    6POPC  H10Y  785   2.678   4.045   4.202 -0.4438  1.0323 -0.7750
    6POPC  C311  786   2.482   4.092   4.099  0.2953 -0.2751 -0.0146
    6POPC  H11X  787   2.391   4.029   4.095  0.1429 -0.0560  0.0505
    6POPC  H11Y  788   2.536   4.076   4.002 -1.0319 -0.7593 -0.7036
    6POPC  C312  789   2.439   4.233   4.103 -0.4681 -0.5524  0.6618
    6POPC  H12X  790   2.521   4.308   4.115 -0.8195  0.1251 -0.9316
    6POPC  H12Y  791   2.370   4.241   4.190 -0.8044 -2.9808  0.6740
    6POPC  C313  792   2.353   4.274   3.979 -0.0829  0.4713 -0.3140
    6POPC  H13X  793   2.383   4.215   3.890 -0.3303  0.5912 -0.4786
    6POPC  H13Y  794   2.359   4.384   3.963  1.5272  0.3105 -0.9769
    6POPC  C314  795   2.205   4.249   4.006  0.2612 -0.5415  0.2449
    6POPC  H14X  796   2.164   4.306   4.092 -2.1279  0.6306 -1.5740
    6POPC  H14Y  797   2.189   4.139   4.018 -1.8365 -0.2209  0.6600
    6POPC  C315  798   2.103   4.293   3.900  0.7715 -0.3196 -0.2072
    6POPC  H15X  799   2.133   4.250   3.802 -1.3824 -4.0995  0.5969
    6POPC  H15Y  800   2.118   4.403   3.899 -1.8103  0.0860 -0.3192
    6POPC  C316  801   1.955   4.250   3.926  0.0221 -0.2861 -0.3744
    6POPC  H16X  802   1.919   4.304   4.015  1.2809 -0.0132 -0.0034
    6POPC  H16Y  803   1.940   4.140   3.931  0.8245 -0.3416  1.7097
    6POPC  H16Z  804   1.887   4.282   3.844 -2.1732 -0.7609  1.1884
    7POPC     N  805   6.099   6.029   5.973  0.1479  0.3025 -0.1604
    7POPC   C12  806   6.191   6.150   5.958  0.9631  0.6134  0.2728
    7POPC  H12A  807   6.164   6.188   5.860  1.2928 -0.3127 -0.1947
    7POPC  H12B  808   6.291   6.112   5.941  1.1234  0.6455  1.0928
    7POPC   C13  809   5.953   6.050   5.961  0.6343 -0.1990 -0.4016
    7POPC  H13A  810   5.935   6.154   5.984  0.9183 -0.4677  1.1312
    7POPC  H13B  811   5.926   6.043   5.857  2.1686  0.2455 -0.8660
    7POPC  H13C  812   5.894   5.984   6.024 -0.3863  0.6143 -0.4857
    7POPC   C14  813   6.136   5.926   5.869 -0.6764 -0.0597  0.0525
    7POPC  H14A  814   6.112   5.955   5.768 -2.3873  0.3562  0.5537
    7POPC  H14B  815   6.241   5.898   5.877 -0.3840  0.7194 -0.8898
    7POPC  H14C  816   6.086   5.831   5.881 -0.0901 -0.2773  0.9043
    7POPC   C15  817   6.125   5.953   6.101 -0.1689 -0.2350 -0.4412
    7POPC  H15A  818   6.117   6.023   6.183  0.1270 -0.5088 -0.1708
    7POPC  H15B  819   6.223   5.907   6.108  0.3162  0.7410 -0.6120
    7POPC  H15C  820   6.049   5.877   6.113 -0.5990  0.0555 -1.2938
    7POPC   C11  821   6.182   6.261   6.066  0.4339  0.2855 -0.8094
    7POPC  H11A  822   6.263   6.337   6.070  0.1187  0.6608 -1.4256
    7POPC  H11B  823   6.197   6.199   6.157 -1.3671 -0.6080 -1.0673
    7POPC     P  824   6.023   6.440   5.975  0.0771 -0.3342 -0.3429
    7POPC   O13  825   6.137   6.456   5.886 -0.1484 -0.2544  0.1581
    7POPC   O14  826   5.952   6.552   6.053  0.3018  0.1574  0.3882
    7POPC   O12  827   6.053   6.320   6.066  0.0678 -0.2992  0.6545
    7POPC   O11  828   5.912   6.369   5.890 -0.8256  0.2163  0.8451
    7POPC    C1  829   5.913   6.348   5.751 -1.0482  0.1693 -0.5489
    7POPC    HA  830   5.824   6.286   5.727 -0.3194 -1.6444  1.1469
    7POPC    HB  831   5.995   6.274   5.735 -1.2136 -0.4352  1.1707
    7POPC    C2  832   5.934   6.474   5.653  0.4226 -0.4515 -0.3244
    7POPC    HS  833   6.031   6.518   5.684 -0.4353 -0.1486  2.0613
    7POPC   O21  834   5.813   6.554   5.671 -0.3262  0.3285  0.7679
    7POPC   C21  835   5.838   6.679   5.719  0.1972 -0.0072  0.6075
    7POPC   O22  836   5.949   6.730   5.733 -0.3635 -0.2216  0.0652
    7POPC   C22  837   5.705   6.761   5.725  0.2161 -0.1063 -0.4146
    7POPC   H2R  838   5.709   6.835   5.807  0.4271 -1.8536  1.2250
    7POPC   H2S  839   5.622   6.695   5.760  1.5768 -1.9083 -0.4444
    7POPC    C3  840   5.947   6.428   5.511 -0.2257 -0.5120  0.0272
    7POPC    HX  841   5.863   6.358   5.489 -0.9830 -0.3942  2.3087
    7POPC    HY  842   6.042   6.373   5.492 -0.5096 -0.5656 -1.4026
    7POPC   O31  843   5.937   6.530   5.406 -0.0592 -0.2205 -0.2809
    7POPC   C31  844   6.040   6.621   5.406  0.4899  0.2025 -0.0956
    7POPC   O32  845   6.138   6.615   5.481  0.0942  0.0555  0.2617
    7POPC   C32  846   6.006   6.728   5.294 -0.2267 -0.8081  0.6745
    7POPC   H2X  847   5.957   6.812   5.346  0.5316  0.6402 -0.8480
    7POPC   H2Y  848   5.941   6.687   5.213  2.2685  0.4431 -2.1801
    7POPC   C23  849   5.674   6.825   5.589 -0.3999 -0.6669  0.1363
    7POPC   H3R  850   5.763   6.866   5.536 -1.8655 -1.3183 -3.0775
    7POPC   H3S  851   5.601   6.908   5.601  0.5592  0.3097 -0.5368
    7POPC   C24  852   5.624   6.727   5.480  0.7396 -0.6141 -0.0262
    7POPC   H4R  853   5.539   6.671   5.527  1.3549 -0.9422  0.7213
    7POPC   H4S  854   5.706   6.658   5.452  1.7285  0.5955 -0.1851
    7POPC   C25  855   5.563   6.813   5.366 -0.0627  0.4750 -0.3048
    7POPC   H5R  856   5.642   6.861   5.305 -1.4173  2.1925 -0.8004
    7POPC   H5S  857   5.497   6.892   5.409  0.5109  0.3032  0.9354
    7POPC   C26  858   5.473   6.736   5.267 -0.1241  0.8940 -0.8395
    7POPC   H6R  859   5.380   6.699   5.316  0.8314  1.8703  1.8488
    7POPC   H6S  860   5.520   6.638   5.242 -0.5434  0.6499 -0.6952
    7POPC   C27  861   5.440   6.826   5.144  0.0945  0.1724 -0.3605
    7POPC   H7R  862   5.522   6.897   5.120 -0.3753  0.6098 -0.6949
    7POPC   H7S  863   5.350   6.887   5.166 -0.1717 -0.0925 -0.6979
    7POPC   C28  864   5.399   6.745   5.020 -0.1559  0.0047 -0.5823
    7POPC   H8R  865   5.376   6.810   4.932  1.8584 -1.9050 -2.6818
    7POPC   H8S  866   5.304   6.693   5.042 -0.9641  1.1365 -1.2581
    7POPC   C29  867   5.525   6.671   4.975  0.2058 -0.5056 -0.3427
    7POPC   H91  868   5.623   6.695   5.019 -0.6771  1.0850  0.8644
    7POPC  C210  869   5.510   6.570   4.892  0.1105  0.4915 -1.0015
    7POPC  H101  870   5.596   6.515   4.853  1.3950  0.8164  1.1888
    7POPC  C211  871   5.378   6.503   4.850 -0.2463  0.6420  1.3437
    7POPC  H11R  872   5.293   6.574   4.852  0.0998  1.0735  1.0082
    7POPC  H11S  873   5.354   6.425   4.926  0.5791 -3.4688 -2.2311
    7POPC  C212  874   5.365   6.446   4.706 -0.5798  0.5643 -0.2584
    7POPC  H12R  875   5.347   6.530   4.635 -1.8473 -2.1053 -3.4036
    7POPC  H12S  876   5.266   6.396   4.697 -0.5172  0.4864 -0.5194
    7POPC  C213  877   5.478   6.352   4.675 -0.5869 -0.2415  0.5441
    7POPC  H13R  878   5.474   6.275   4.755 -0.1381  0.1639  0.9692
    7POPC  H13S  879   5.579   6.398   4.675 -1.7703  2.6455 -0.5924
    7POPC  C214  880   5.463   6.299   4.529  0.3071 -0.3924 -0.4319
    7POPC  H14R  881   5.364   6.249   4.526  0.4469 -0.6280 -1.7184
    7POPC  H14S  882   5.541   6.225   4.502  0.5954  0.4161 -1.9235
    7POPC  C215  883   5.476   6.414   4.428  0.5232 -0.7139  0.7661
    7POPC  H15R  884   5.569   6.467   4.458  1.0369 -1.2023  0.0395
    7POPC  H15S  885   5.394   6.489   4.437  0.2891 -1.0986  2.0540
    7POPC  C216  886   5.507   6.361   4.289 -0.5599 -0.1801  0.4493
    7POPC  H16R  887   5.600   6.301   4.299 -0.3509  0.0785  0.0812
    7POPC  H16S  888   5.517   6.459   4.237 -0.6899 -0.9455 -1.0827
    7POPC  C217  889   5.401   6.281   4.230  0.1561  0.6827  0.7602
    7POPC  H17R  890   5.331   6.357   4.188  1.1330  0.1333 -2.0586
    7POPC  H17S  891   5.349   6.225   4.311 -0.7719  2.2271  1.2742
    7POPC  C218  892   5.464   6.194   4.115 -0.3388  0.2750  0.4027
    7POPC  H18R  893   5.526   6.245   4.038  0.8855 -0.4424  0.8912
    7POPC  H18S  894   5.383   6.133   4.069 -1.2538  1.1588  0.8012
    7POPC  H18T  895   5.532   6.123   4.167 -2.1141  0.3580  3.0105
    7POPC   C33  896   6.134   6.785   5.222 -0.7070  0.2971  1.2069
    7POPC   H3X  897   6.213   6.798   5.299 -0.6887  0.8924  1.0868
    7POPC   H3Y  898   6.102   6.882   5.180 -0.7891 -0.8763 -1.6899
    7POPC   C34  899   6.170   6.698   5.098 -0.0240  0.6013 -0.5827
    7POPC   H4X  900   6.074   6.681   5.044  0.2981 -0.9334 -0.7073
    7POPC   H4Y  901   6.201   6.592   5.114 -1.6078  0.3578  1.2318
    7POPC   C35  902   6.273   6.758   5.008 -0.4586 -0.2452  0.6216
    7POPC   H5X  903   6.371   6.743   5.057 -0.2248 -0.2623  0.1502
    7POPC   H5Y  904   6.257   6.867   4.997 -1.5312 -0.5021 -0.6857
    7POPC   C36  905   6.276   6.686   4.868 -0.6553 -0.2591  0.0401
    7POPC   H6X  906   6.176   6.696   4.821 -0.4818 -0.3005 -0.3427
    7POPC   H6Y  907   6.299   6.580   4.891 -1.6541 -0.7406 -1.1000
    7POPC   C37  908   6.377   6.736   4.759  0.3355 -0.4568  0.6605
    7POPC   H7X  909   6.486   6.722   4.777  0.3976  0.2302  0.8391
    7POPC   H7Y  910   6.351   6.842   4.737 -1.1452 -1.1926 -1.3827
    7POPC   C38  911   6.354   6.659   4.625 -0.7430  0.1383  0.5930
    7POPC   H8X  912   6.244   6.666   4.617 -0.7585  0.4715  1.0725
    7POPC   H8Y  913   6.371   6.550   4.642  0.6454 -0.1714 -2.1752
    7POPC   C39  914   6.431   6.715   4.505 -1.1030 -0.4055 -0.0712
    7POPC   H9X  915   6.412   6.824   4.514 -0.5231 -0.2577 -0.5782
    7POPC   H9Y  916   6.377   6.672   4.418  1.5131 -2.4137 -0.8337
    7POPC  C310  917   6.577   6.664   4.495 -0.2077  1.5930 -0.8682
    7POPC  H10X  918   6.587   6.558   4.464  0.1819  2.1640 -2.7683
    7POPC  H10Y  919   6.627   6.681   4.593  0.1831 -3.2967  0.0048
    7POPC  C311  920   6.646   6.746   4.387  0.0174  0.0487  0.6929
    7POPC  H11X  921   6.640   6.852   4.420 -1.0847  0.3958 -0.5342
    7POPC  H11Y  922   6.587   6.743   4.293 -0.7312  0.9148  1.1155
    7POPC  C312  923   6.789   6.711   4.368 -0.1395  0.0559  0.0012
    7POPC  H12X  924   6.830   6.762   4.278 -1.9063  0.6742 -0.4934
    7POPC  H12Y  925   6.795   6.601   4.368 -0.0576 -0.0436 -3.0610
    7POPC  C313  926   6.886   6.753   4.484 -0.0309 -0.4449 -0.1983
    7POPC  H13X  927   6.835   6.725   4.579  0.0565  2.9911  0.9964
    7POPC  H13Y  928   6.917   6.859   4.495 -2.9128  0.3488  1.5560
    7POPC  C314  929   7.007   6.658   4.479 -0.8750  0.5455 -0.0799
    7POPC  H14X  930   7.068   6.689   4.391  0.9550  1.1338  1.3418
    7POPC  H14Y  931   6.968   6.557   4.452  1.2209  0.4163 -3.1598
    7POPC  C315  932   7.099   6.649   4.601  0.0111  0.1543 -0.1198
    7POPC  H15X  933   7.053   6.616   4.696 -2.3006  1.1263 -0.8337
    7POPC  H15Y  934   7.136   6.751   4.622  2.2827 -0.3942 -1.1656
    7POPC  C316  935   7.219   6.559   4.578  0.1981 -0.1128 -0.7671
    7POPC  H16X  936   7.270   6.571   4.480  0.4979 -2.8695 -1.0235
    7POPC  H16Y  937   7.187   6.453   4.573  0.7038 -0.3239  0.1595
    7POPC  H16Z  938   7.296   6.570   4.657 -1.0847 -0.6670  0.6240
    8POPC     N  939   5.898   2.307   6.224 -0.9223  0.2534 -0.1724
    8POPC   C12  940   5.957   2.263   6.091  0.2520  0.6309  0.3873
    8POPC  H12A  941   5.936   2.158   6.077  1.9112  0.0656  1.7680
    8POPC  H12B  942   6.065   2.265   6.083  0.2138 -0.7132 -0.8017
    8POPC   C13  943   5.934   2.445   6.242 -0.5367  0.0242  0.2023
    8POPC  H13A  944   6.042   2.453   6.245 -0.6635  1.7003  1.3613
    8POPC  H13B  945   5.893   2.510   6.167  2.6366  1.5378 -0.4170
    8POPC  H13C  946   5.901   2.497   6.330 -2.5150  1.0886 -1.0998
    8POPC   C14  947   5.753   2.278   6.224 -0.5021  0.4164 -0.0043
    8POPC  H14A  948   5.699   2.337   6.297 -0.7962  0.8681 -0.5777
    8POPC  H14B  949   5.714   2.294   6.124  0.7937 -1.8064 -0.9301
    8POPC  H14C  950   5.738   2.175   6.253  0.6560  0.0512 -0.6587
    8POPC   C15  951   5.958   2.234   6.337 -0.1300  0.3041 -0.7706
    8POPC  H15A  952   5.908   2.254   6.430 -0.2163 -0.0502 -0.7415
    8POPC  H15B  953   6.063   2.257   6.348 -0.0234 -0.4110 -0.2461
    8POPC  H15C  954   5.953   2.128   6.319  1.5416 -0.3394  1.9553
    8POPC   C11  955   5.921   2.356   5.972 -0.1650  0.1716 -0.5617
    8POPC  H11A  956   5.970   2.316   5.880 -0.0550 -0.1401 -0.3714
    8POPC  H11B  957   5.960   2.458   5.993 -0.2171 -0.3792  2.6487
    8POPC     P  958   5.686   2.472   5.934 -0.0644  0.2515  0.1938
    8POPC   O13  959   5.742   2.592   5.994 -0.6445  0.5255 -0.7810
    8POPC   O14  960   5.555   2.430   5.988 -0.0456  0.0521 -0.4994
    8POPC   O12  961   5.783   2.349   5.935  0.3439  0.3322 -0.3004
    8POPC   O11  962   5.660   2.503   5.781  0.2377  0.5350  0.1072
    8POPC    C1  963   5.629   2.415   5.673  0.3139 -0.1183  0.2389
    8POPC    HA  964   5.573   2.474   5.596  2.9176  0.8119 -1.0556
    8POPC    HB  965   5.564   2.332   5.707  0.3762 -0.5206 -0.5915
    8POPC    C2  966   5.755   2.352   5.611  0.3500 -0.1824  0.5684
    8POPC    HS  967   5.831   2.322   5.686  0.0538  0.9830  1.3579
    8POPC   O21  968   5.814   2.450   5.524  0.6036  0.5325 -0.4447
    8POPC   C21  969   5.939   2.447   5.494 -0.2852 -0.1190 -0.1519
    8POPC   O22  970   6.014   2.363   5.540  0.0173  0.0574  0.1036
    8POPC   C22  971   5.977   2.554   5.395 -0.5012 -0.2809 -0.1217
    8POPC   H2R  972   6.083   2.543   5.363  0.7454  3.5156  2.0870
    8POPC   H2S  973   5.980   2.639   5.467  0.3649 -0.3052 -0.1108
    8POPC    C3  974   5.714   2.223   5.528 -0.3267  0.3039  0.1486
    8POPC    HX  975   5.654   2.166   5.602  0.2949 -1.2918 -0.5080
    8POPC    HY  976   5.805   2.169   5.494 -1.9714 -1.0939 -2.4000
    8POPC   O31  977   5.633   2.247   5.411  0.3024 -0.3642  0.2662
    8POPC   C31  978   5.562   2.136   5.365 -0.1031 -0.5235 -0.3597
    8POPC   O32  979   5.578   2.025   5.409  0.1641 -0.0669 -0.3492
    8POPC   C32  980   5.454   2.172   5.267  0.1667  0.5597 -0.0650
    8POPC   H2X  981   5.402   2.258   5.314 -1.8612 -1.1969  1.0649
    8POPC   H2Y  982   5.383   2.088   5.254  0.9777 -0.3223  1.0803
    8POPC   C23  983   5.888   2.574   5.275 -0.4014  0.7389 -0.4752
    8POPC   H3R  984   5.905   2.667   5.216 -1.7897  1.6877  0.5643
    8POPC   H3S  985   5.782   2.579   5.307 -0.6501 -2.2712 -0.5275
    8POPC   C24  986   5.902   2.458   5.172 -0.4591 -0.1995  0.4296
    8POPC   H4R  987   5.881   2.362   5.224 -1.4512  0.0930  0.6010
    8POPC   H4S  988   6.009   2.459   5.144  0.0881  0.7451  2.4011
    8POPC   C25  989   5.798   2.463   5.059 -0.3685  0.0152  0.5984
    8POPC   H5R  990   5.806   2.563   5.013  0.5703  0.2123  1.1599
    8POPC   H5S  991   5.707   2.458   5.122 -2.2277  2.1383 -1.6946
    8POPC   C26  992   5.824   2.345   4.959 -0.3322  0.4904 -0.1945
    8POPC   H6R  993   5.843   2.251   5.016  0.0022  0.7361  0.1080
    8POPC   H6S  994   5.921   2.370   4.911  0.6139 -0.8489  0.9173
    8POPC   C27  995   5.721   2.336   4.854  0.3136  0.1014 -0.9764
    8POPC   H7R  996   5.705   2.440   4.818 -4.7575 -0.4259 -1.0518
    8POPC   H7S  997   5.619   2.306   4.887  0.0889  1.5754 -0.2589
    8POPC   C28  998   5.769   2.237   4.741  0.6356 -0.0444  0.3356
    8POPC   H8R  999   5.790   2.138   4.787 -0.8375 -1.8378 -2.5665
    8POPC   H8S 1000   5.862   2.279   4.698  0.2055 -0.5791 -1.1645
    8POPC   C29 1001   5.645   2.229   4.644 -0.3687 -0.6010 -0.5559
    8POPC   H91 1002   5.564   2.177   4.697  0.1722 -0.3673  0.5285
    8POPC  C210 1003   5.649   2.245   4.510 -1.2691 -0.1278 -0.7622
    8POPC  H101 1004   5.552   2.212   4.469 -3.0857 -0.8275  3.5610
    8POPC  C211 1005   5.756   2.292   4.408 -0.0620 -0.0840 -0.5206
    8POPC  H11R 1006   5.841   2.334   4.465  0.3454 -2.2492  0.5461
    8POPC  H11S 1007   5.707   2.369   4.344  1.6854  0.1585 -1.6485
    8POPC  C212 1008   5.813   2.183   4.321 -0.3281  0.1385 -0.3022
    8POPC  H12R 1009   5.866   2.118   4.393 -2.5374 -0.6948  0.6616
    8POPC  H12S 1010   5.891   2.228   4.256 -1.1580  1.1520 -0.6269
    8POPC  C213 1011   5.722   2.083   4.248  0.9239 -0.0815  0.7669
    8POPC  H13R 1012   5.667   2.023   4.323 -0.1016 -0.9089 -0.5978
    8POPC  H13S 1013   5.791   2.014   4.195  0.6144 -0.8212  1.3198
    8POPC  C214 1014   5.621   2.167   4.163  0.4564 -0.1639  0.5484
    8POPC  H14R 1015   5.667   2.257   4.116 -1.3230  0.6256  0.2244
    8POPC  H14S 1016   5.543   2.217   4.225 -0.9261 -0.8429 -0.5941
    8POPC  C215 1017   5.544   2.086   4.054 -0.7266 -0.5076 -0.6648
    8POPC  H15R 1018   5.605   2.047   3.970 -1.4865 -1.4464 -0.7973
    8POPC  H15S 1019   5.466   2.152   4.011  0.3641  0.6377 -0.9446
    8POPC  C216 1020   5.474   1.960   4.115 -0.0489  0.0276 -0.7492
    8POPC  H16R 1021   5.436   1.987   4.215 -0.9920 -1.6763 -0.6030
    8POPC  H16S 1022   5.554   1.885   4.133  0.0050  0.4231  0.7549
    8POPC  C217 1023   5.351   1.900   4.039 -0.5501 -0.2427 -0.8275
    8POPC  H17R 1024   5.386   1.857   3.943  1.8814  1.0380 -0.5881
    8POPC  H17S 1025   5.277   1.980   4.021 -1.2694 -0.8405 -0.6111
    8POPC  C218 1026   5.286   1.788   4.122  0.3314  0.0826 -0.3666
    8POPC  H18R 1027   5.202   1.733   4.074 -0.6404 -0.2160  1.6063
    8POPC  H18S 1028   5.259   1.834   4.219  1.5492 -0.5626  0.3154
    8POPC  H18T 1029   5.353   1.705   4.153 -0.1155  0.9099  3.1358
    8POPC   C33 1030   5.503   2.190   5.121  0.7675  0.1705  0.3122
    8POPC   H3X 1031   5.595   2.131   5.103  1.1025  1.0416 -0.9852
    8POPC   H3Y 1032   5.553   2.289   5.110  2.6429 -0.8489 -0.8507
    8POPC   C34 1033   5.404   2.151   5.011 -0.0584 -0.9325 -0.8736
    8POPC   H4X 1034   5.360   2.049   5.024 -0.3003 -0.5918  1.5605
    8POPC   H4Y 1035   5.447   2.168   4.910 -0.3982  0.9502 -0.7352
    8POPC   C35 1036   5.276   2.235   5.010 -0.3669 -0.2935 -0.0927
    8POPC   H5X 1037   5.298   2.343   5.026  0.0407 -0.0287 -2.1063
    8POPC   H5Y 1038   5.225   2.202   5.103 -1.4672  0.7302 -0.2931
    8POPC   C36 1039   5.191   2.212   4.886 -0.6171  1.4157 -0.2070
    8POPC   H6X 1040   5.135   2.120   4.914  0.8144  0.6494  0.2827
    8POPC   H6Y 1041   5.251   2.183   4.797  0.7127 -1.7861  1.5220
    8POPC   C37 1042   5.105   2.328   4.857 -0.1233  1.0225 -0.2054
    8POPC   H7X 1043   5.176   2.412   4.873 -0.6163  0.9207  3.0703
    8POPC   H7Y 1044   5.030   2.333   4.939  0.8153 -1.6970  0.9514
    8POPC   C38 1045   5.048   2.347   4.722  0.1696 -0.2747  0.6862
    8POPC   H8X 1046   4.993   2.255   4.695  2.2761 -1.8988  1.6748
    8POPC   H8Y 1047   5.127   2.349   4.643  0.4006 -3.6773  0.7007
    8POPC   C39 1048   4.958   2.472   4.707  0.0603  0.0948 -0.2522
    8POPC   H9X 1049   5.028   2.558   4.722 -0.8501  0.9703 -0.8401
    8POPC   H9Y 1050   4.875   2.465   4.780  1.2669  0.6110  1.2138
    8POPC  C310 1051   4.896   2.470   4.566  0.2290  0.1290 -0.1268
    8POPC  H10X 1052   4.806   2.405   4.575 -0.4707  1.3364  3.4378
    8POPC  H10Y 1053   4.974   2.416   4.509  0.6665  0.6018  0.0138
    8POPC  C311 1054   4.845   2.605   4.509 -0.2636 -1.2687 -0.0863
    8POPC  H11X 1055   4.805   2.650   4.603  0.2114  0.5812 -0.7336
    8POPC  H11Y 1056   4.758   2.576   4.446 -0.3767  0.3089 -0.6822
    8POPC  C312 1057   4.951   2.693   4.437 -0.6944 -0.1851  0.4273
    8POPC  H12X 1058   5.055   2.661   4.460  0.9451  3.5821 -1.0252
    8POPC  H12Y 1059   4.940   2.797   4.472 -2.2048  0.4545 -1.7429
    8POPC  C313 1060   4.952   2.682   4.277  0.4778  0.1350  0.4536
    8POPC  H13X 1061   4.945   2.577   4.242  0.6965 -0.2912  1.6422
    8POPC  H13Y 1062   5.043   2.739   4.249 -0.5677  1.9715  0.6115
    8POPC  C314 1063   4.830   2.752   4.214 -0.0407 -0.8425  0.5660
    8POPC  H14X 1064   4.817   2.855   4.253  0.9313 -0.3674 -0.3178
    8POPC  H14Y 1065   4.745   2.685   4.240 -0.2431 -0.3657  1.1633
    8POPC  C315 1066   4.833   2.773   4.063  0.0477 -0.1028  0.1340
    8POPC  H15X 1067   4.886   2.867   4.037 -0.3662 -0.2693 -1.4067
    8POPC  H15Y 1068   4.734   2.796   4.019  0.0620  0.6435  0.4746
    8POPC  C316 1069   4.911   2.663   3.993 -0.1484  0.1806  0.0036
    8POPC  H16X 1070   5.018   2.678   4.017  0.1324 -0.7610 -0.6019
    8POPC  H16Y 1071   4.895   2.659   3.883 -1.1872 -1.9294  0.1724
    8POPC  H16Z 1072   4.885   2.562   4.032 -1.7363  1.1392  1.5284
    9POPC     N 1073   3.089   5.390   6.024  0.3999  0.3227 -0.1051
    9POPC   C12 1074   2.965   5.383   5.929  0.1615 -0.1537 -0.2314
    9POPC  H12A 1075   2.934   5.482   5.901  2.8261  1.2151  1.2284
    9POPC  H12B 1076   2.878   5.343   5.979  0.4175  1.7654  1.9117
    9POPC   C13 1077   3.121   5.260   6.098  0.1480  0.2486  0.1047
    9POPC  H13A 1078   3.129   5.176   6.030  0.6922  1.8974 -1.9796
    9POPC  H13B 1079   3.214   5.277   6.150 -1.7429  2.1476  3.1928
    9POPC  H13C 1080   3.048   5.252   6.177 -0.6719  1.5662 -0.4930
    9POPC   C14 1081   3.205   5.439   5.945  0.1973 -0.5115 -0.5717
    9POPC  H14A 1082   3.207   5.379   5.855  2.0371 -1.3850  0.0035
    9POPC  H14B 1083   3.193   5.543   5.920 -3.0133 -0.3552  1.1260
    9POPC  H14C 1084   3.297   5.428   6.001  0.7426 -2.9781 -1.8206
    9POPC   C15 1085   3.069   5.498   6.127  0.4354 -0.6178 -0.0294
    9POPC  H15A 1086   3.160   5.508   6.184  0.0840 -0.5071  0.5260
    9POPC  H15B 1087   2.988   5.472   6.194  1.2723 -0.2815  1.1423
    9POPC  H15C 1088   3.040   5.589   6.077  1.3894 -0.7482 -0.8501
    9POPC   C11 1089   2.988   5.304   5.797 -0.3206 -0.0938  0.4367
    9POPC  H11A 1090   3.078   5.347   5.749  0.4496  0.8581  2.6108
    9POPC  H11B 1091   2.902   5.318   5.727  1.3685  0.3913 -1.6238
    9POPC     P 1092   3.109   5.064   5.773 -0.2418 -0.3085  0.1641
    9POPC   O13 1093   3.070   5.000   5.650  0.3831 -0.2749 -0.1257
    9POPC   O14 1094   3.141   4.971   5.883  0.5311  0.4243 -0.1454
    9POPC   O12 1095   2.996   5.167   5.814 -0.0747 -0.4028  0.3091
    9POPC   O11 1096   3.235   5.161   5.747 -0.0679  0.0679 -0.4546
    9POPC    C1 1097   3.367   5.125   5.806  0.5336 -0.2293  0.2066
    9POPC    HA 1098   3.366   5.065   5.899  0.3665 -0.6997 -0.0984
    9POPC    HB 1099   3.406   5.219   5.851 -0.3899 -0.3699  1.3537
    9POPC    C2 1100   3.470   5.077   5.703  0.3306 -1.1102  0.3885
    9POPC    HS 1101   3.565   5.068   5.760  1.5185  2.7090 -0.6867
    9POPC   O21 1102   3.490   5.181   5.602  0.1543 -0.4476 -0.1781
    9POPC   C21 1103   3.609   5.193   5.557 -0.4595  0.3983 -0.5306
    9POPC   O22 1104   3.708   5.122   5.588 -0.0529 -0.7355  0.6008
    9POPC   C22 1105   3.611   5.313   5.462 -0.6442  0.0680 -0.1993
    9POPC   H2R 1106   3.720   5.336   5.453 -0.4376 -1.2044 -1.1588
    9POPC   H2S 1107   3.557   5.393   5.518 -0.5967 -0.7042  0.9870
    9POPC    C3 1108   3.427   4.946   5.637  0.8973 -0.1557 -0.8230
    9POPC    HX 1109   3.349   4.976   5.563  1.2201  0.0485 -1.0848
    9POPC    HY 1110   3.392   4.875   5.715 -0.7589  1.8213  0.3166
    9POPC   O31 1111   3.536   4.890   5.562 -0.4949  0.2252  0.6306
    9POPC   C31 1112   3.507   4.820   5.451 -0.1765 -0.3126  0.2828
    9POPC   O32 1113   3.394   4.799   5.411  0.4161  0.1242  0.6018
    9POPC   C32 1114   3.642   4.788   5.389  0.1471  0.0046 -0.1222
    9POPC   H2X 1115   3.708   4.730   5.458 -1.9368 -2.1486  0.1764
    9POPC   H2Y 1116   3.697   4.883   5.370 -0.3505  0.8903  2.3981
    9POPC   C23 1117   3.559   5.272   5.319 -1.1116 -0.3765 -0.2129
    9POPC   H3R 1118   3.561   5.369   5.265 -0.4743  0.5841  1.4827
    9POPC   H3S 1119   3.452   5.242   5.333 -1.0825 -0.5519 -0.3665
    9POPC   C24 1120   3.639   5.158   5.251 -0.1854 -0.1108 -0.4057
    9POPC   H4R 1121   3.619   5.078   5.326  3.3772 -0.8359 -0.0365
    9POPC   H4S 1122   3.748   5.178   5.260  0.0814 -1.3352 -0.7245
    9POPC   C25 1123   3.597   5.118   5.114  0.4198 -1.0186  0.0808
    9POPC   H5R 1124   3.486   5.116   5.108  0.4970 -1.7832 -2.2025
    9POPC   H5S 1125   3.628   5.011   5.104  0.7276 -0.9342  0.1441
    9POPC   C26 1126   3.647   5.212   4.999 -0.0095 -0.4414 -0.7951
    9POPC   H6R 1127   3.758   5.214   4.997  0.0156  0.5706  0.2740
    9POPC   H6S 1128   3.615   5.316   5.022  0.1158 -0.1687 -1.8328
    9POPC   C27 1129   3.580   5.166   4.867  0.9086  0.1794 -0.3925
    9POPC   H7R 1130   3.576   5.255   4.801  2.1986  1.0214  0.5969
    9POPC   H7S 1131   3.472   5.155   4.890  0.5170  1.5490 -1.4510
    9POPC   C28 1132   3.652   5.049   4.796  0.2695 -0.1809 -0.5127
    9POPC   H8R 1133   3.676   4.978   4.878 -1.5227 -0.2465  0.0002
    9POPC   H8S 1134   3.740   5.104   4.757 -1.4703  1.9669 -1.6270
    9POPC   C29 1135   3.570   4.985   4.688  0.5129  0.1281  0.6675
    9POPC   H91 1136   3.479   4.937   4.725 -0.5166  0.2827 -1.4984
    9POPC  C210 1137   3.591   4.998   4.550  0.7901  0.7580 -0.3965
    9POPC  H101 1138   3.522   4.950   4.479  1.9865 -3.4946  0.9606
    9POPC  C211 1139   3.703   5.073   4.492 -0.7279  0.4198 -0.8790
    9POPC  H11R 1140   3.792   5.069   4.557 -1.8137 -1.9558  0.6073
    9POPC  H11S 1141   3.673   5.180   4.489 -0.5637  0.4700 -0.7309
    9POPC  C212 1142   3.745   5.023   4.357  0.7778  0.1996  0.3275
    9POPC  H12R 1143   3.753   4.912   4.360 -3.3502 -0.2490  1.6557
    9POPC  H12S 1144   3.844   5.066   4.330 -0.8917  2.5123 -2.7821
    9POPC  C213 1145   3.652   5.053   4.239  0.5340 -0.4992 -0.5410
    9POPC  H13R 1146   3.550   5.015   4.263 -0.3525  2.0663  0.1169
    9POPC  H13S 1147   3.691   5.014   4.143  2.1447  1.0782 -0.5900
    9POPC  C214 1148   3.622   5.198   4.215  0.6051 -0.7569 -0.0600
    9POPC  H14R 1149   3.718   5.254   4.208 -0.6445  1.3951 -0.9025
    9POPC  H14S 1150   3.559   5.240   4.296  0.6235 -0.7213 -0.0639
    9POPC  C215 1151   3.537   5.222   4.083 -0.0862 -0.2302 -0.5122
    9POPC  H15R 1152   3.592   5.186   3.994  1.7801  1.4143 -0.0787
    9POPC  H15S 1153   3.548   5.332   4.071  0.5701 -0.2559 -0.2055
    9POPC  C216 1154   3.393   5.175   4.083  0.6101  0.6916  0.7900
    9POPC  H16R 1155   3.327   5.212   4.164 -1.3117 -1.7476  0.4792
    9POPC  H16S 1156   3.409   5.066   4.102  0.1503  0.3530 -0.6512
    9POPC  C217 1157   3.322   5.191   3.952 -0.2715 -0.3593  0.6846
    9POPC  H17R 1158   3.370   5.118   3.883  2.0512  1.8373 -0.2261
    9POPC  H17S 1159   3.336   5.288   3.900 -1.7677 -0.6904 -0.4100
    9POPC  C218 1160   3.177   5.157   3.961 -0.2394  0.0887  0.6960
    9POPC  H18R 1161   3.126   5.156   3.863 -0.9609 -1.6682  1.0470
    9POPC  H18S 1162   3.122   5.221   4.033 -2.8238 -0.6837 -0.4825
    9POPC  H18T 1163   3.169   5.053   3.999 -3.1486 -0.4258 -0.9990
    9POPC   C33 1164   3.618   4.699   5.267 -0.2024  0.0472 -0.5680
    9POPC   H3X 1165   3.544   4.751   5.203 -2.7386  1.6626  3.3030
    9POPC   H3Y 1166   3.572   4.601   5.289  2.4902 -1.7518 -2.2959
    9POPC   C34 1167   3.746   4.681   5.186 -0.6169 -0.0801  0.5040
    9POPC   H4X 1168   3.816   4.620   5.247 -1.5591 -0.3375  1.3448
    9POPC   H4Y 1169   3.801   4.775   5.163  1.5392 -1.2966  0.4759
    9POPC   C35 1170   3.731   4.604   5.053  0.3540 -0.1172  0.1068
    9POPC   H5X 1171   3.672   4.513   5.077 -2.2339  1.7580  1.2530
    9POPC   H5Y 1172   3.834   4.583   5.016 -0.0124  1.1347 -1.7395
    9POPC   C36 1173   3.661   4.683   4.937 -0.4283 -0.3461 -0.1571
    9POPC   H6X 1174   3.725   4.774   4.942 -0.4427 -0.3863  0.9242
    9POPC   H6Y 1175   3.558   4.715   4.965 -0.3176 -0.7586  0.7462
    9POPC   C37 1176   3.645   4.612   4.806  0.1583 -0.0332  1.0401
    9POPC   H7X 1177   3.576   4.675   4.746 -0.3400  0.6915  2.3410
    9POPC   H7Y 1178   3.615   4.505   4.814 -0.3588  0.0207 -0.0147
    9POPC   C38 1179   3.773   4.608   4.724 -0.6931 -0.6227 -0.3688
    9POPC   H8X 1180   3.854   4.564   4.785 -0.2553  1.9467  1.0853
    9POPC   H8Y 1181   3.812   4.712   4.713 -1.4558 -0.4456 -1.5683
    9POPC   C39 1182   3.760   4.561   4.578  0.0381  0.0052  0.2608
    9POPC   H9X 1183   3.661   4.526   4.544  0.4953  1.0781 -2.4097
    9POPC   H9Y 1184   3.832   4.478   4.561 -0.9598 -0.6015 -1.0970
    9POPC  C310 1185   3.795   4.668   4.480  0.5590 -0.2604  0.4091
    9POPC  H10X 1186   3.875   4.727   4.529  0.3130 -1.5339  2.4619
    9POPC  H10Y 1187   3.699   4.724   4.478  0.0806 -1.0645  0.6299
    9POPC  C311 1188   3.834   4.599   4.344 -0.3658 -0.7830 -0.4525
    9POPC  H11X 1189   3.898   4.511   4.365 -2.5800 -2.0909  1.2006
    9POPC  H11Y 1190   3.897   4.682   4.303 -0.4311 -0.5456 -0.0746
    9POPC  C312 1191   3.720   4.566   4.256 -0.1336 -0.8539 -0.7025
    9POPC  H12X 1192   3.671   4.661   4.226 -2.5229 -1.0081  2.2013
    9POPC  H12Y 1193   3.639   4.512   4.309  0.1505 -1.6306 -1.0397
    9POPC  C313 1194   3.748   4.476   4.135  0.7247  0.3597  0.2637
    9POPC  H13X 1195   3.819   4.398   4.172 -0.8772 -1.7443 -0.8278
    9POPC  H13Y 1196   3.787   4.533   4.049 -1.5625  0.5256 -0.7301
    9POPC  C314 1197   3.619   4.386   4.102 -0.2158 -1.3415  1.0652
    9POPC  H14X 1198   3.634   4.356   3.996 -0.9054  0.2487  0.4851
    9POPC  H14Y 1199   3.530   4.452   4.108  0.3539 -0.6472  2.1633
    9POPC  C315 1200   3.593   4.262   4.180  0.7458  0.0037  0.6653
    9POPC  H15X 1201   3.493   4.231   4.143  1.3504 -0.3007 -0.7699
    9POPC  H15Y 1202   3.574   4.299   4.283 -0.1477  1.0109  0.1579
    9POPC  C316 1203   3.690   4.149   4.168  0.4670  0.4839 -0.0051
    9POPC  H16X 1204   3.679   4.070   4.245 -1.7018 -0.2490 -0.9816
    9POPC  H16Y 1205   3.797   4.179   4.175  0.8317 -0.8174  0.2293
    9POPC  H16Z 1206   3.677   4.101   4.069  1.8313  1.9158 -0.9304
   10POPC     N 1207   0.526   5.213   6.215  0.1143  0.4215 -0.6262
   10POPC   C12 1208   0.640   5.287   6.143  0.9000 -0.0946 -0.1918
   10POPC  H12A 1209   0.731   5.292   6.200  2.5878 -1.1665 -2.6215
   10POPC  H12B 1210   0.615   5.392   6.133  0.1828 -0.2769 -0.3472
   10POPC   C13 1211   0.551   5.066   6.246 -0.3191 -0.1774  0.2274
   10POPC  H13A 1212   0.570   5.020   6.150 -0.0240  1.5529 -0.5890
   10POPC  H13B 1213   0.634   5.066   6.315 -3.1562 -1.8044  3.9893
   10POPC  H13C 1214   0.471   5.015   6.296  1.3566 -0.9410  2.2684
   10POPC   C14 1215   0.498   5.284   6.348 -0.4003  0.1558  0.1486
   10POPC  H14A 1216   0.407   5.253   6.398  0.5713 -0.2121  1.7760
   10POPC  H14B 1217   0.582   5.262   6.412  1.8440 -0.8641 -2.9292
   10POPC  H14C 1218   0.470   5.387   6.328 -3.4941 -0.9658 -2.0996
   10POPC   C15 1219   0.400   5.222   6.127 -0.5694 -0.5272 -0.4114
   10POPC  H15A 1220   0.322   5.175   6.185 -0.7864  0.5140  0.1613
   10POPC  H15B 1221   0.420   5.169   6.035  0.5480 -0.5050 -0.1940
   10POPC  H15C 1222   0.376   5.325   6.102  0.9838 -0.0408  0.0167
   10POPC   C11 1223   0.686   5.246   6.000  0.1653  0.2894 -0.2100
   10POPC  H11A 1224   0.753   5.318   5.949  0.0151  0.4192 -0.2263
   10POPC  H11B 1225   0.592   5.249   5.940  2.6290  1.2237 -4.4424
   10POPC     P 1226   0.875   5.065   6.046 -0.2241  0.1486 -0.1251
   10POPC   O13 1227   0.865   4.954   6.144  0.3037 -0.4550  0.5176
   10POPC   O14 1228   0.949   5.179   6.094 -0.2385 -0.1764  0.5886
   10POPC   O12 1229   0.729   5.111   6.005 -0.6825 -0.6169 -0.0715
   10POPC   O11 1230   0.950   5.013   5.915  0.4904 -0.5956  0.0622
   10POPC    C1 1231   0.884   4.916   5.827 -0.0733 -0.1730  0.1012
   10POPC    HA 1232   0.776   4.903   5.851 -0.6025  0.5537 -1.6868
   10POPC    HB 1233   0.935   4.819   5.843 -0.1234 -0.2312 -0.0810
   10POPC    C2 1234   0.884   4.954   5.676  0.6107  0.1985  0.0010
   10POPC    HS 1235   0.858   4.862   5.620  0.0667 -0.0027  0.5632
   10POPC   O21 1236   1.016   4.992   5.639 -0.2543 -0.2118  0.0741
   10POPC   C21 1237   1.099   4.905   5.593 -0.2437 -0.4318  0.4820
   10POPC   O22 1238   1.094   4.784   5.587  0.0744 -0.5239  0.1068
   10POPC   C22 1239   1.216   4.995   5.538  0.0798 -0.3604 -0.1510
   10POPC   H2R 1240   1.261   5.061   5.615 -0.2893 -0.4829  0.1739
   10POPC   H2S 1241   1.172   5.064   5.462  1.9407 -1.7720 -2.6559
   10POPC    C3 1242   0.788   5.059   5.625 -0.0280 -0.1835 -0.2512
   10POPC    HX 1243   0.801   5.149   5.688  0.2852 -0.0444 -0.5094
   10POPC    HY 1244   0.686   5.018   5.641  0.1699 -0.4039  0.4520
   10POPC   O31 1245   0.810   5.084   5.484  0.7931 -0.0025 -0.0998
   10POPC   C31 1246   0.862   5.195   5.444  0.5777 -0.7447  0.9779
   10POPC   O32 1247   0.898   5.286   5.515  0.6187 -0.2574  0.3164
   10POPC   C32 1248   0.869   5.190   5.292 -0.2511 -1.1148  0.7214
   10POPC   H2X 1249   0.881   5.290   5.244  1.0157 -1.5526  0.0784
   10POPC   H2Y 1250   0.775   5.146   5.251 -0.8534  0.2627  0.5533
   10POPC   C23 1251   1.322   4.915   5.459  0.0979 -0.2542  0.0799
   10POPC   H3R 1252   1.338   4.819   5.511  1.4464  0.5097  1.1449
   10POPC   H3S 1253   1.420   4.967   5.463  2.0485 -3.5675 -0.8885
   10POPC   C24 1254   1.278   4.886   5.320  0.1772  0.2423 -0.0957
   10POPC   H4R 1255   1.246   4.976   5.264  0.7211 -0.5915 -1.7948
   10POPC   H4S 1256   1.193   4.814   5.319  1.8923 -1.8669 -0.7949
   10POPC   C25 1257   1.386   4.830   5.231 -0.2667 -0.1940 -0.0354
   10POPC   H5R 1258   1.349   4.767   5.148  2.6186 -2.8004  0.4608
   10POPC   H5S 1259   1.450   4.768   5.298  3.1641  2.1694 -0.8121
   10POPC   C26 1260   1.487   4.941   5.181  0.1728 -0.2237 -0.5513
   10POPC   H6R 1261   1.497   5.009   5.268  0.6324 -2.5119  1.3119
   10POPC   H6S 1262   1.434   4.987   5.096  0.1468 -0.3981 -0.6304
   10POPC   C27 1263   1.628   4.890   5.149 -0.1679 -0.0988  0.6301
   10POPC   H7R 1264   1.677   4.873   5.248 -0.8455 -0.9002  0.8408
   10POPC   H7S 1265   1.679   4.979   5.105 -3.4298  1.3564 -0.4711
   10POPC   C28 1266   1.655   4.758   5.077  0.5372 -0.2851  0.6498
   10POPC   H8R 1267   1.606   4.675   5.133 -2.3368  0.5457 -0.4751
   10POPC   H8S 1268   1.764   4.741   5.082  0.5752  0.2691  2.4401
   10POPC   C29 1269   1.597   4.763   4.937 -0.5074  0.0587 -1.0453
   10POPC   H91 1270   1.495   4.805   4.939 -1.0656 -1.1744 -1.8121
   10POPC  C210 1271   1.646   4.712   4.826 -0.0683 -0.6045 -0.7173
   10POPC  H101 1272   1.582   4.717   4.737  2.2397 -0.9286 -2.5032
   10POPC  C211 1273   1.777   4.642   4.806 -0.0178  0.6695 -0.9024
   10POPC  H11R 1274   1.853   4.668   4.883 -0.8112  0.7370 -0.1328
   10POPC  H11S 1275   1.817   4.683   4.710 -1.5883  1.9819 -1.0421
   10POPC  C212 1276   1.766   4.489   4.793  0.4252 -1.2008  0.0736
   10POPC  H12R 1277   1.684   4.470   4.721 -1.0980 -1.3111  1.7930
   10POPC  H12S 1278   1.718   4.463   4.889 -0.7308  1.9435  0.4609
   10POPC  C213 1279   1.897   4.413   4.762 -0.4742  0.0155  0.2065
   10POPC  H13R 1280   1.971   4.442   4.840  1.8912 -0.2958 -1.7861
   10POPC  H13S 1281   1.931   4.453   4.664  3.0413 -0.1605  1.2235
   10POPC  C214 1282   1.875   4.267   4.766 -1.2584 -0.7583  0.1531
   10POPC  H14R 1283   1.811   4.232   4.683 -0.5295 -1.4560 -0.1221
   10POPC  H14S 1284   1.829   4.245   4.865 -0.3731  0.2403  0.8189
   10POPC  C215 1285   2.009   4.194   4.750 -0.0783  0.2484  0.4790
   10POPC  H15R 1286   1.997   4.084   4.761  1.4374 -0.2927 -2.2724
   10POPC  H15S 1287   2.075   4.232   4.831 -0.6696  2.1764  0.0902
   10POPC  C216 1288   2.072   4.218   4.613 -0.0788  0.2809 -0.1083
   10POPC  H16R 1289   2.174   4.175   4.602 -0.1979 -0.4884  1.5366
   10POPC  H16S 1290   2.087   4.327   4.598  3.0116 -0.1615 -0.8970
   10POPC  C217 1291   1.996   4.169   4.496  0.3228  0.1951 -0.6581
   10POPC  H17R 1292   1.896   4.217   4.502  0.9574  1.5117  0.0742
   10POPC  H17S 1293   1.986   4.059   4.503  1.1305  0.2151  1.4522
   10POPC  C218 1294   2.056   4.204   4.361 -0.2335  0.4432  0.1332
   10POPC  H18R 1295   2.155   4.154   4.356 -0.0638  0.4703  2.4397
   10POPC  H18S 1296   2.055   4.315   4.352 -0.1806  0.4732  0.4955
   10POPC  H18T 1297   1.991   4.159   4.282 -0.4314 -2.4229  1.7796
   10POPC   C33 1298   0.973   5.096   5.236 -0.3353  0.4653  0.4409
   10POPC   H3X 1299   0.969   4.996   5.285 -0.4385  0.2137 -0.0703
   10POPC   H3Y 1300   1.079   5.128   5.251 -0.1727  1.3316 -1.9991
   10POPC   C34 1301   0.959   5.069   5.079 -0.1497 -0.2547 -0.0710
   10POPC   H4X 1302   0.995   5.165   5.036  1.5853 -1.4364 -1.3632
   10POPC   H4Y 1303   0.850   5.052   5.062 -0.8560  0.5053  3.0175
   10POPC   C35 1304   1.054   4.961   5.028  0.3640 -0.2050 -0.2182
   10POPC   H5X 1305   1.038   4.864   5.080 -0.4263 -1.2221 -2.2456
   10POPC   H5Y 1306   1.162   4.983   5.045  0.5685 -1.3506  0.0736
   10POPC   C36 1307   1.037   4.932   4.878  0.2426  0.0398  0.0073
   10POPC   H6X 1308   1.067   5.027   4.828 -1.8949  0.1221 -1.2561
   10POPC   H6Y 1309   0.930   4.910   4.855  0.0395  1.1671 -0.1731
   10POPC   C37 1310   1.132   4.830   4.822  0.0572 -0.6929 -0.1700
   10POPC   H7X 1311   1.231   4.838   4.872 -0.0600  0.6124 -0.1331
   10POPC   H7Y 1312   1.137   4.849   4.713  1.9586  0.8332  0.1311
   10POPC   C38 1313   1.068   4.693   4.838  0.5090  0.6081  0.1049
   10POPC   H8X 1314   0.998   4.682   4.753  0.8914  0.8566 -0.2448
   10POPC   H8Y 1315   1.006   4.671   4.928 -0.4017  2.0503 -0.1465
   10POPC   C39 1316   1.170   4.581   4.834  0.0159  0.2794  0.7230
   10POPC   H9X 1317   1.230   4.583   4.740 -1.4964 -0.3477 -0.2854
   10POPC   H9Y 1318   1.114   4.486   4.821  0.7206  0.0852 -1.3455
   10POPC  C310 1319   1.258   4.566   4.961  0.1860 -0.2611 -0.3291
   10POPC  H10X 1320   1.208   4.604   5.052  0.8777  0.6116 -0.3087
   10POPC  H10Y 1321   1.344   4.634   4.966 -1.1889  1.4565  1.6145
   10POPC  C311 1322   1.291   4.418   4.983  0.0149  1.1350  0.3536
   10POPC  H11X 1323   1.365   4.381   4.909 -2.9190 -2.0578 -1.2559
   10POPC  H11Y 1324   1.206   4.351   4.959 -0.4235  1.9725 -0.5217
   10POPC  C312 1325   1.337   4.383   5.127  0.3335 -0.0612  0.0174
   10POPC  H12X 1326   1.251   4.404   5.195  1.2566  0.1321  1.1455
   10POPC  H12Y 1327   1.417   4.458   5.140  1.3730 -0.7395 -2.0258
   10POPC  C313 1328   1.389   4.243   5.142 -0.0045  0.5401 -0.8217
   10POPC  H13X 1329   1.325   4.167   5.093 -1.2544 -1.3559  3.2904
   10POPC  H13Y 1330   1.380   4.223   5.251 -0.7428  0.7631 -0.8400
   10POPC  C314 1331   1.535   4.244   5.096  0.8283  0.6149 -0.0570
   10POPC  H14X 1332   1.594   4.331   5.132  2.0604 -0.0805 -0.3319
   10POPC  H14Y 1333   1.527   4.256   4.985 -1.2559  1.2279  0.1119
   10POPC  C315 1334   1.621   4.116   5.126 -0.4354 -0.6106  0.5765
   10POPC  H15X 1335   1.635   4.119   5.237  0.9005  1.0751  0.4051
   10POPC  H15Y 1336   1.721   4.124   5.078 -0.6874  2.8111  0.3804
   10POPC  C316 1337   1.571   3.970   5.088  0.1233 -0.8459  1.1331
   10POPC  H16X 1338   1.506   3.973   4.997  1.1857 -3.3812  0.1939
   10POPC  H16Y 1339   1.505   3.934   5.170 -1.9181 -1.5410 -0.6760
   10POPC  H16Z 1340   1.656   3.905   5.060  0.3080  0.3075 -1.2822
   11POPC     N 1341   5.048   4.914   5.696  0.5301  0.0282 -0.2439
   11POPC   C12 1342   4.913   4.849   5.728 -0.1296 -0.8404  0.1955
   11POPC  H12A 1343   4.866   4.844   5.631  1.0678  0.8090 -0.5293
   11POPC  H12B 1344   4.864   4.931   5.779  0.2388  0.0671 -0.8482
   11POPC   C13 1345   5.129   4.819   5.612 -0.2210  0.1848  0.0389
   11POPC  H13A 1346   5.179   4.750   5.678 -1.9667  0.8263  2.1196
   11POPC  H13B 1347   5.072   4.761   5.541  1.6330 -2.3823  0.5053
   11POPC  H13C 1348   5.208   4.870   5.558  0.3003  1.3748  1.8424
   11POPC   C14 1349   5.012   5.037   5.616  0.0045 -0.3392 -0.4184
   11POPC  H14A 1350   4.945   5.101   5.671 -0.9046 -2.1129  0.6365
   11POPC  H14B 1351   5.100   5.096   5.592  1.8020 -1.5975  2.4728
   11POPC  H14C 1352   4.955   5.018   5.527  0.2278  1.9475 -1.1051
   11POPC   C15 1353   5.124   4.952   5.817  0.3519  0.3070  0.3099
   11POPC  H15A 1354   5.219   4.992   5.784 -0.3007 -1.1036 -3.8517
   11POPC  H15B 1355   5.128   4.869   5.886 -0.4218 -0.5851 -0.6917
   11POPC  H15C 1356   5.073   5.031   5.870  1.1996  0.7841  0.4419
   11POPC   C11 1357   4.905   4.712   5.807  0.0269 -0.3162 -0.2015
   11POPC  H11A 1358   4.796   4.703   5.823  0.1342  0.9566  1.5779
   11POPC  H11B 1359   4.948   4.729   5.908 -0.0987 -0.3247 -0.1469
   11POPC     P 1360   4.869   4.559   5.612  0.0757  0.1823 -0.3930
   11POPC   O13 1361   4.726   4.599   5.622 -0.1651 -0.0145 -0.0261
   11POPC   O14 1362   4.908   4.409   5.597 -0.2902 -0.3298  0.1412
   11POPC   O12 1363   4.962   4.607   5.736  0.2603 -0.0210  0.9058
   11POPC   O11 1364   4.936   4.638   5.493 -0.2824  0.3682  0.0785
   11POPC    C1 1365   4.876   4.656   5.361  0.4448  0.0450 -0.0137
   11POPC    HA 1366   4.906   4.756   5.326  1.1456 -0.6830 -1.5695
   11POPC    HB 1367   4.766   4.671   5.369  0.7750  2.1230  1.1989
   11POPC    C2 1368   4.914   4.545   5.255  0.5370 -0.2172 -0.2051
   11POPC    HS 1369   4.888   4.586   5.155 -1.5098 -1.6216 -0.3094
   11POPC   O21 1370   4.830   4.426   5.288  0.2719  0.2487  0.2226
   11POPC   C21 1371   4.704   4.431   5.237 -0.5214 -0.2753 -0.2507
   11POPC   O22 1372   4.659   4.534   5.188 -0.0845  0.0210  0.1864
   11POPC   C22 1373   4.631   4.298   5.250 -0.3275 -0.1265 -0.1129
   11POPC   H2R 1374   4.533   4.330   5.291  0.7916  0.8434  1.9436
   11POPC   H2S 1375   4.682   4.238   5.328 -0.2456  0.3440  0.1933
   11POPC    C3 1376   5.062   4.506   5.256 -0.2740 -0.0969 -0.3218
   11POPC    HX 1377   5.081   4.478   5.362 -1.4969 -0.4541 -0.1862
   11POPC    HY 1378   5.132   4.589   5.229 -0.4318  0.2348  0.2609
   11POPC   O31 1379   5.089   4.403   5.158  0.6914 -0.2863  0.2108
   11POPC   C31 1380   5.101   4.284   5.199 -0.9734  0.6116  0.9887
   11POPC   O32 1381   5.100   4.247   5.312  0.7750  0.4516 -0.8578
   11POPC   C32 1382   5.110   4.187   5.079  0.8741  0.4111  0.3279
   11POPC   H2X 1383   5.071   4.092   5.120  2.0934 -0.4653 -0.4678
   11POPC   H2Y 1384   5.211   4.170   5.036  1.2615  0.4567  1.1797
   11POPC   C23 1385   4.606   4.225   5.113 -0.0085  0.7550  0.2143
   11POPC   H3R 1386   4.700   4.213   5.055 -0.2837  0.2844 -0.1355
   11POPC   H3S 1387   4.546   4.288   5.043  0.4494 -1.3285 -2.1715
   11POPC   C24 1388   4.549   4.078   5.132 -0.5470 -0.4090 -0.5377
   11POPC   H4R 1389   4.451   4.085   5.184 -0.4678  0.9062 -0.5327
   11POPC   H4S 1390   4.629   4.036   5.197 -0.1492  1.3979  0.1989
   11POPC   C25 1391   4.533   4.003   5.002 -0.7084 -0.4393  0.3343
   11POPC   H5R 1392   4.629   3.964   4.962 -0.1706 -1.1871  2.2148
   11POPC   H5S 1393   4.485   4.077   4.935 -2.0265 -0.5636  1.0989
   11POPC   C26 1394   4.424   3.894   4.997 -0.2941 -0.4846 -0.0538
   11POPC   H6R 1395   4.323   3.929   5.026 -0.0295  0.2693  0.0055
   11POPC   H6S 1396   4.438   3.804   5.061 -2.5637 -1.4319 -0.7978
   11POPC   C27 1397   4.395   3.848   4.851  0.3020 -0.5028  0.2242
   11POPC   H7R 1398   4.496   3.822   4.814 -0.2597 -0.7416 -1.2112
   11POPC   H7S 1399   4.354   3.935   4.796 -0.0833 -0.6781  0.2238
   11POPC   C28 1400   4.299   3.729   4.841  0.4355  0.2466  0.1401
   11POPC   H8R 1401   4.201   3.759   4.884 -0.2716 -0.4357 -0.9542
   11POPC   H8S 1402   4.317   3.645   4.912  0.1346  0.1211  0.0732
   11POPC   C29 1403   4.280   3.682   4.698  0.1295  0.1190 -0.5400
   11POPC   H91 1404   4.224   3.756   4.639  0.6329  0.6137 -0.3974
   11POPC  C210 1405   4.303   3.558   4.650 -0.0235  0.8233  0.1035
   11POPC  H101 1406   4.271   3.547   4.545 -1.6407  0.0653  0.6571
   11POPC  C211 1407   4.358   3.439   4.728 -0.0755 -0.3514 -0.3898
   11POPC  H11R 1408   4.293   3.352   4.708 -3.0254  1.7572 -0.5349
   11POPC  H11S 1409   4.335   3.463   4.834 -0.3651  2.1216 -0.9620
   11POPC  C212 1410   4.499   3.393   4.694 -0.2194  0.0295 -0.0535
   11POPC  H12R 1411   4.550   3.486   4.726 -0.3203  0.2712 -0.5973
   11POPC  H12S 1412   4.510   3.377   4.585  0.6361  2.1342 -0.3314
   11POPC  C213 1413   4.547   3.263   4.775  0.6554  0.2356  0.5217
   11POPC  H13R 1414   4.651   3.244   4.741  0.3949  0.8672 -0.6621
   11POPC  H13S 1415   4.479   3.182   4.739 -0.6675  2.5524 -2.6315
   11POPC  C214 1416   4.548   3.270   4.926  0.1845  0.5543  0.3343
   11POPC  H14R 1417   4.570   3.169   4.966  1.5297  0.5191 -0.4302
   11POPC  H14S 1418   4.459   3.312   4.978  0.8782  0.3113  1.7755
   11POPC  C215 1419   4.657   3.380   4.961 -1.0216 -0.0523 -0.0206
   11POPC  H15R 1420   4.606   3.475   4.933 -0.8674 -0.5336 -2.0556
   11POPC  H15S 1421   4.751   3.371   4.903  0.0190  0.2914  1.5395
   11POPC  C216 1422   4.681   3.390   5.114  0.2402  0.1460  0.1743
   11POPC  H16R 1423   4.733   3.298   5.149 -0.8584  0.2102  2.0813
   11POPC  H16S 1424   4.579   3.384   5.156  1.0726 -0.9349  2.2243
   11POPC  C217 1425   4.765   3.508   5.170  0.3062 -0.5585  0.0899
   11POPC  H17R 1426   4.856   3.519   5.107  0.5160  0.7374  0.5963
   11POPC  H17S 1427   4.803   3.483   5.271  2.1797 -0.3772 -0.5230
   11POPC  C218 1428   4.689   3.642   5.179  0.0409 -0.5023 -0.4390
   11POPC  H18R 1429   4.658   3.680   5.079 -0.8029 -0.4011 -0.1511
   11POPC  H18S 1430   4.753   3.715   5.232 -1.5869  0.8822 -0.2932
   11POPC  H18T 1431   4.598   3.639   5.244  0.5285  1.0352  0.3561
   11POPC   C33 1432   5.020   4.227   4.960  0.5556 -0.5490  0.4702
   11POPC   H3X 1433   5.037   4.321   4.904  0.0145  0.2056  1.5348
   11POPC   H3Y 1434   4.916   4.246   4.997  1.7797  1.2167  3.4099
   11POPC   C34 1435   5.000   4.118   4.859  0.3789 -0.4947  0.8676
   11POPC   H4X 1436   4.914   4.142   4.792  1.0380  1.9643  0.8136
   11POPC   H4Y 1437   4.970   4.027   4.915  2.1783  0.3775  3.3979
   11POPC   C35 1438   5.113   4.086   4.759 -0.5789 -0.1992  0.1530
   11POPC   H5X 1439   5.085   3.996   4.699  2.8135 -1.1177 -0.2547
   11POPC   H5Y 1440   5.201   4.045   4.813 -0.7089 -0.7137 -0.0156
   11POPC   C36 1441   5.155   4.202   4.670  0.4337 -0.4134 -0.1941
   11POPC   H6X 1442   5.187   4.285   4.737  2.4211 -1.8528  0.7308
   11POPC   H6Y 1443   5.060   4.223   4.617 -1.0914  0.9179  2.8094
   11POPC   C37 1444   5.259   4.167   4.557 -0.1458 -0.1048  0.6653
   11POPC   H7X 1445   5.219   4.084   4.495  0.9620  1.0537 -1.7417
   11POPC   H7Y 1446   5.348   4.123   4.608 -0.1282 -0.5601  0.2473
   11POPC   C38 1447   5.297   4.290   4.474 -0.3428  0.1273  0.2160
   11POPC   H8X 1448   5.347   4.367   4.536 -0.5552 -1.3885  2.3721
   11POPC   H8Y 1449   5.203   4.338   4.440 -0.6840 -1.7123 -1.6880
   11POPC   C39 1450   5.388   4.252   4.354 -0.3105 -0.1185 -0.0514
   11POPC   H9X 1451   5.363   4.145   4.341 -3.4987  0.6572 -1.1541
   11POPC   H9Y 1452   5.496   4.249   4.379  0.1158  2.7794 -1.1700
   11POPC  C310 1453   5.367   4.338   4.226  0.1412  0.3673 -0.3373
   11POPC  H10X 1454   5.260   4.350   4.196  0.5738 -1.7706 -3.2369
   11POPC  H10Y 1455   5.415   4.294   4.136 -0.7046  2.2419 -1.7892
   11POPC  C311 1456   5.422   4.481   4.236  0.4802 -0.9523  0.3963
   11POPC  H11X 1457   5.523   4.487   4.281  0.1729 -0.9723  1.0990
   11POPC  H11Y 1458   5.357   4.543   4.302 -0.3533 -1.9415  0.5352
   11POPC  C312 1459   5.423   4.547   4.097  0.0554  0.0256 -0.7471
   11POPC  H12X 1460   5.319   4.559   4.060 -0.5618  0.3057  1.0055
   11POPC  H12Y 1461   5.482   4.477   4.035  1.5359 -0.4713  1.1419
   11POPC  C313 1462   5.501   4.679   4.077 -0.3381  0.2061 -0.4650
   11POPC  H13X 1463   5.606   4.669   4.112 -0.7470  0.6987  0.9729
   11POPC  H13Y 1464   5.453   4.751   4.147  2.0524  0.0785  1.4157
   11POPC  C314 1465   5.500   4.722   3.926 -0.0433  0.7125 -0.4601
   11POPC  H14X 1466   5.546   4.650   3.856 -0.3295  0.6313 -0.5651
   11POPC  H14Y 1467   5.561   4.815   3.919 -3.2355  3.0335  0.3215
   11POPC  C315 1468   5.357   4.755   3.867  0.6554  0.0201  0.1180
   11POPC  H15X 1469   5.314   4.824   3.943 -3.3311 -2.2243  0.1226
   11POPC  H15Y 1470   5.299   4.661   3.875  0.3277  0.0637 -1.4532
   11POPC  C316 1471   5.352   4.812   3.726  0.7034  0.1703 -0.1496
   11POPC  H16X 1472   5.244   4.815   3.700  1.0499 -1.2386 -1.9297
   11POPC  H16Y 1473   5.400   4.742   3.654 -0.9772 -2.8789  1.4913
   11POPC  H16Z 1474   5.396   4.914   3.735 -0.5740  0.7317  0.0017
   12POPC     N 1475   4.881   4.265   5.971 -0.1342 -0.2647  0.5550
   12POPC   C12 1476   4.882   4.186   6.096 -0.8130  0.2963 -0.7347
   12POPC  H12A 1477   4.810   4.218   6.169 -0.1856  1.6232 -0.6696
   12POPC  H12B 1478   4.968   4.219   6.152 -1.3816  2.2870 -0.9767
   12POPC   C13 1479   4.887   4.411   6.008  0.4960  0.1493  0.4692
   12POPC  H13A 1480   4.982   4.444   6.047  0.2612 -0.5424  1.7012
   12POPC  H13B 1481   4.886   4.468   5.917  1.0967  1.1930  1.0999
   12POPC  H13C 1482   4.807   4.432   6.077  1.5750 -1.3959  2.3227
   12POPC   C14 1483   4.997   4.236   5.877  0.5168 -0.2277  0.1902
   12POPC  H14A 1484   4.997   4.303   5.792  0.6778  0.1878  0.5161
   12POPC  H14B 1485   5.094   4.249   5.922  0.2506  2.8624  0.0774
   12POPC  H14C 1486   4.991   4.132   5.846 -1.5631  0.2052 -1.0450
   12POPC   C15 1487   4.748   4.265   5.900  0.3063  0.3238  0.4156
   12POPC  H15A 1488   4.734   4.168   5.854 -0.3088  1.2046 -1.3456
   12POPC  H15B 1489   4.748   4.341   5.823 -0.3801 -0.5325 -0.4696
   12POPC  H15C 1490   4.659   4.294   5.953 -0.6733 -0.3114 -0.8163
   12POPC   C11 1491   4.879   4.035   6.094 -0.4171 -0.5641 -0.0104
   12POPC  H11A 1492   4.861   3.980   6.189  3.0280 -0.6069  0.7510
   12POPC  H11B 1493   4.982   4.009   6.061  0.3565  0.1506  1.7021
   12POPC     P 1494   4.802   3.852   5.940 -0.0278 -0.0862  0.1079
   12POPC   O13 1495   4.735   3.761   6.036 -0.3774 -0.0955 -0.2513
   12POPC   O14 1496   4.948   3.825   5.915  0.0208  0.6884 -0.2811
   12POPC   O12 1497   4.773   3.997   6.004 -0.5028  0.1948  0.0076
   12POPC   O11 1498   4.724   3.857   5.802 -0.3356 -0.8463 -0.0224
   12POPC    C1 1499   4.736   3.953   5.699  0.8716  0.5054  0.6348
   12POPC    HA 1500   4.818   4.026   5.719  0.1518  0.9618  2.0938
   12POPC    HB 1501   4.636   4.002   5.703  0.1442 -0.7582 -1.0605
   12POPC    C2 1502   4.739   3.880   5.555  0.0255 -0.5935  0.4139
   12POPC    HS 1503   4.753   3.955   5.474  1.9150  0.3698  1.5465
   12POPC   O21 1504   4.635   3.781   5.534  0.1469  0.2538 -0.3343
   12POPC   C21 1505   4.510   3.830   5.518 -0.8465  0.8041  0.9384
   12POPC   O22 1506   4.490   3.949   5.508  0.0524 -0.1037  0.4779
   12POPC   C22 1507   4.399   3.728   5.501  0.0605  0.0261  0.1375
   12POPC   H2R 1508   4.324   3.754   5.577  2.6200  2.9796  1.9024
   12POPC   H2S 1509   4.422   3.619   5.510 -0.6383 -0.0910  0.5317
   12POPC    C3 1510   4.872   3.796   5.540 -0.1772  0.5043 -0.2336
   12POPC    HX 1511   4.862   3.692   5.576  2.0254  0.5004  0.4840
   12POPC    HY 1512   4.944   3.842   5.611  1.3925 -3.3820  0.9076
   12POPC   O31 1513   4.916   3.798   5.403  0.1777  0.3470 -0.2020
   12POPC   C31 1514   5.046   3.820   5.387 -0.7139  0.8344 -0.6281
   12POPC   O32 1515   5.127   3.829   5.477 -0.4300  0.2165 -0.9348
   12POPC   C32 1516   5.084   3.841   5.238  0.1279  0.3395 -0.1384
   12POPC   H2X 1517   5.154   3.926   5.254 -0.9221  1.3891 -0.9307
   12POPC   H2Y 1518   4.997   3.873   5.177 -0.0497 -3.8624 -2.4276
   12POPC   C23 1519   4.333   3.748   5.360 -0.7699 -0.1031 -0.4079
   12POPC   H3R 1520   4.409   3.748   5.278 -1.6422 -1.6149 -1.2464
   12POPC   H3S 1521   4.282   3.846   5.373 -1.4927 -0.5190 -0.0967
   12POPC   C24 1522   4.221   3.640   5.330  0.0649 -0.0712 -0.8098
   12POPC   H4R 1523   4.173   3.617   5.428 -0.8876 -0.8696 -1.4455
   12POPC   H4S 1524   4.271   3.546   5.296  0.2743 -0.5195  0.6452
   12POPC   C25 1525   4.123   3.693   5.231 -0.1749 -0.3285  0.5911
   12POPC   H5R 1526   4.181   3.723   5.142 -1.0651  1.2585  0.5064
   12POPC   H5S 1527   4.065   3.778   5.273 -1.9317 -1.2752  0.1973
   12POPC   C26 1528   4.022   3.580   5.192 -0.1986 -0.3295  0.1181
   12POPC   H6R 1529   3.992   3.538   5.291 -0.8038  1.1654  0.6033
   12POPC   H6S 1530   4.066   3.514   5.114 -0.3433  0.0365 -0.2741
   12POPC   C27 1531   3.891   3.633   5.131 -0.0359 -0.1172 -0.0894
   12POPC   H7R 1532   3.866   3.729   5.182  3.6736 -0.2363  2.3318
   12POPC   H7S 1533   3.807   3.563   5.151 -0.7190 -0.0924 -2.5435
   12POPC   C28 1534   3.891   3.650   4.976  0.0446  0.3862  0.2693
   12POPC   H8R 1535   3.973   3.713   4.934  0.9929  0.9571  2.8389
   12POPC   H8S 1536   3.799   3.709   4.954 -0.5624  0.3117  2.3746
   12POPC   C29 1537   3.895   3.512   4.906  0.1774 -0.2583 -0.2038
   12POPC   H91 1538   3.993   3.463   4.903  0.6529  0.6696 -0.4301
   12POPC  C210 1539   3.777   3.451   4.872  0.4072 -0.5823 -0.2923
   12POPC  H101 1540   3.781   3.352   4.824 -0.8225 -0.6727 -0.2243
   12POPC  C211 1541   3.642   3.513   4.893  0.0256  0.0102  0.0813
   12POPC  H11R 1542   3.642   3.611   4.842 -1.1200 -0.1318 -0.2025
   12POPC  H11S 1543   3.633   3.527   5.002 -1.2731  2.8359 -0.3251
   12POPC  C212 1544   3.528   3.445   4.826  0.4209  0.2774  0.1001
   12POPC  H12R 1545   3.437   3.498   4.862 -0.0130  0.4297 -1.1494
   12POPC  H12S 1546   3.530   3.339   4.861 -0.8020  0.1726 -0.0961
   12POPC  C213 1547   3.513   3.450   4.677 -0.5731 -0.0561 -0.4241
   12POPC  H13R 1548   3.597   3.386   4.644  0.0828 -0.5082  1.9479
   12POPC  H13S 1549   3.528   3.552   4.634 -0.1433  0.1817  0.2844
   12POPC  C214 1550   3.379   3.391   4.626  0.4710 -0.2557 -0.2172
   12POPC  H14R 1551   3.297   3.435   4.687  1.7984 -0.5810  1.8930
   12POPC  H14S 1552   3.377   3.281   4.641 -0.9516 -0.1789  0.3542
   12POPC  C215 1553   3.340   3.421   4.483 -0.4038 -0.3700  0.5565
   12POPC  H15R 1554   3.396   3.362   4.407 -0.1079  0.1652  0.3527
   12POPC  H15S 1555   3.360   3.530   4.471 -2.0220 -0.2482 -1.8034
   12POPC  C216 1556   3.194   3.392   4.454 -1.0550  0.0790  0.4895
   12POPC  H16R 1557   3.130   3.432   4.536 -0.1436  2.2526  0.2104
   12POPC  H16S 1558   3.184   3.282   4.450 -0.4005  0.0341 -2.5170
   12POPC  C217 1559   3.144   3.439   4.313  0.2419 -0.3750  0.9136
   12POPC  H17R 1560   3.231   3.449   4.245  0.5914 -0.7313  1.3012
   12POPC  H17S 1561   3.111   3.545   4.324  0.6090 -0.3336  1.6308
   12POPC  C218 1562   3.034   3.357   4.255 -0.0284 -0.4325 -0.6374
   12POPC  H18R 1563   2.998   3.404   4.161  0.0633  3.0281  0.9200
   12POPC  H18S 1564   2.955   3.343   4.332 -0.3940 -1.9946 -1.2532
   12POPC  H18T 1565   3.070   3.253   4.241  0.7588 -0.6616  2.3127
   12POPC   C33 1566   5.147   3.717   5.175  0.3085 -0.4923 -0.5177
   12POPC   H3X 1567   5.069   3.639   5.161  0.0243  0.0466 -2.1491
   12POPC   H3Y 1568   5.224   3.672   5.241 -1.3400  0.8842  2.5581
   12POPC   C34 1569   5.211   3.765   5.045 -0.2459  0.2485  0.1675
   12POPC   H4X 1570   5.264   3.862   5.054 -0.2001  0.1788  0.6944
   12POPC   H4Y 1571   5.129   3.793   4.975 -1.4944 -0.4866  1.2792
   12POPC   C35 1572   5.308   3.663   4.979 -1.1162 -0.1203 -0.4458
   12POPC   H5X 1573   5.268   3.561   4.964 -0.3061 -0.5998  0.5067
   12POPC   H5Y 1574   5.391   3.660   5.054 -1.6816  2.8952  0.4289
   12POPC   C36 1575   5.348   3.710   4.840 -0.2260 -0.5244  0.4625
   12POPC   H6X 1576   5.255   3.743   4.788 -0.4329 -0.3007  0.9746
   12POPC   H6Y 1577   5.394   3.628   4.780 -0.0506  0.7910 -1.3046
   12POPC   C37 1578   5.451   3.824   4.826 -0.4947  0.1586  0.4968
   12POPC   H7X 1579   5.544   3.786   4.873 -1.5448  0.0615  2.6254
   12POPC   H7Y 1580   5.405   3.911   4.876  1.5094  2.4694 -1.4264
   12POPC   C38 1581   5.489   3.857   4.677  0.2991 -0.4695 -0.1207
   12POPC   H8X 1582   5.405   3.905   4.622  2.2286  0.4346 -2.4437
   12POPC   H8Y 1583   5.525   3.764   4.629 -2.0121 -1.3412 -0.2863
   12POPC   C39 1584   5.609   3.959   4.675 -0.3451  0.6770 -0.6417
   12POPC   H9X 1585   5.681   3.914   4.747  2.2255 -0.5459 -3.7799
   12POPC   H9Y 1586   5.563   4.057   4.704  1.4094  1.2595  0.2993
   12POPC  C310 1587   5.683   3.973   4.541  0.1967  0.0127 -0.5682
   12POPC  H10X 1588   5.784   4.015   4.562 -0.3727  0.6406  1.0550
   12POPC  H10Y 1589   5.630   4.043   4.472  0.5455 -0.2321 -1.0965
   12POPC  C311 1590   5.705   3.838   4.463  0.4378 -0.7101 -0.8424
   12POPC  H11X 1591   5.610   3.809   4.414 -0.6859  0.0128  0.8132
   12POPC  H11Y 1592   5.734   3.764   4.541  1.2728  1.0429  0.5735
   12POPC  C312 1593   5.816   3.847   4.353  0.1056  0.2890 -0.1196
   12POPC  H12X 1594   5.913   3.862   4.405 -0.0569 -0.0770  0.3031
   12POPC  H12Y 1595   5.793   3.924   4.276 -1.4562  0.4439  0.4641
   12POPC  C313 1596   5.829   3.707   4.285 -0.7183 -0.1189  0.4302
   12POPC  H13X 1597   5.746   3.670   4.221 -0.0833  1.1241 -1.1720
   12POPC  H13Y 1598   5.837   3.639   4.373  2.8970 -1.6679 -0.8708
   12POPC  C314 1599   5.966   3.689   4.217  0.4147 -0.5492  0.0172
   12POPC  H14X 1600   5.973   3.593   4.161  1.7911 -0.0382 -0.7397
   12POPC  H14Y 1601   6.034   3.695   4.304 -0.3628  0.0493  0.5992
   12POPC  C315 1602   6.003   3.789   4.104  0.5717 -0.1918 -0.0470
   12POPC  H15X 1603   5.984   3.890   4.145 -2.9252 -0.9981  0.6808
   12POPC  H15Y 1604   5.934   3.786   4.017 -2.4913  1.5603  2.1452
   12POPC  C316 1605   6.144   3.774   4.064 -0.3167 -0.7021 -0.4176
   12POPC  H16X 1606   6.173   3.674   4.025 -1.8504 -0.4148 -2.4291
   12POPC  H16Y 1607   6.202   3.789   4.158 -0.5202 -1.4811 -0.1647
   12POPC  H16Z 1608   6.181   3.862   4.007  0.0624  0.1528  1.1046
   13POPC     N 1609   5.183   7.053   6.224  0.1093 -1.0953  0.0685
   13POPC   C12 1610   5.068   7.147   6.253 -0.5404  0.0714 -0.2340
   13POPC  H12A 1611   5.101   7.249   6.262  0.6554 -0.2749 -0.6435
   13POPC  H12B 1612   5.041   7.129   6.357  0.1015 -0.6453 -0.1896
   13POPC   C13 1613   5.163   6.916   6.282  0.3808  0.2079  0.8316
   13POPC  H13A 1614   5.067   6.881   6.248  0.2400  1.4311 -0.1167
   13POPC  H13B 1615   5.241   6.854   6.240  0.9911  1.0193  0.7348
   13POPC  H13C 1616   5.165   6.916   6.390 -0.5301 -1.7144  0.8897
   13POPC   C14 1617   5.194   7.039   6.077  0.1163  0.5669 -0.0421
   13POPC  H14A 1618   5.197   7.137   6.033  1.5498  2.0819  3.0756
   13POPC  H14B 1619   5.287   6.987   6.057  0.3683  0.4371  1.3490
   13POPC  H14C 1620   5.115   6.979   6.034 -0.1430  1.7918 -1.3268
   13POPC   C15 1621   5.320   7.104   6.268 -0.6195  0.2846 -0.2222
   13POPC  H15A 1622   5.394   7.025   6.262 -0.1905  0.5732  0.8787
   13POPC  H15B 1623   5.323   7.113   6.376  0.5180  1.4319 -0.3246
   13POPC  H15C 1624   5.364   7.192   6.224  0.7943 -0.5104 -0.4606
   13POPC   C11 1625   4.934   7.124   6.176 -0.0593 -0.1348  0.2537
   13POPC  H11A 1626   4.844   7.163   6.228 -0.9895 -2.3376  0.4217
   13POPC  H11B 1627   4.911   7.015   6.176 -0.7785 -0.0011 -1.0897
   13POPC     P 1628   4.904   7.332   6.021 -0.0680  0.5505  0.0909
   13POPC   O13 1629   5.002   7.424   6.086  0.1014 -0.1518  0.0244
   13POPC   O14 1630   4.757   7.348   6.051 -0.6755  0.5406  0.0246
   13POPC   O12 1631   4.947   7.180   6.042  0.2865 -0.4553  0.4475
   13POPC   O11 1632   4.923   7.345   5.860  0.1663  0.0427 -0.0933
   13POPC    C1 1633   4.872   7.252   5.770 -0.7613  0.2067 -0.1849
   13POPC    HA 1634   4.768   7.227   5.800 -0.9016  2.7649  1.7297
   13POPC    HB 1635   4.938   7.162   5.774  0.8093  1.3625  1.1042
   13POPC    C2 1636   4.868   7.302   5.624 -0.1051  0.2129  0.1349
   13POPC    HS 1637   4.818   7.231   5.555  2.5241 -2.0406  0.3898
   13POPC   O21 1638   5.005   7.321   5.586 -0.0465  0.2268  0.6564
   13POPC   C21 1639   5.042   7.268   5.471  0.2270 -0.2688  0.6127
   13POPC   O22 1640   4.965   7.231   5.383  0.0181 -0.4881 -0.2652
   13POPC   C22 1641   5.193   7.276   5.448  1.2682 -0.2733 -0.1977
   13POPC   H2R 1642   5.233   7.194   5.512 -0.8610 -0.3920  1.0619
   13POPC   H2S 1643   5.236   7.372   5.485  1.6257 -0.1942 -0.7960
   13POPC    C3 1644   4.805   7.450   5.608 -0.3659  0.0349  0.1280
   13POPC    HX 1645   4.869   7.510   5.676  0.9471 -2.1712  0.9661
   13POPC    HY 1646   4.699   7.446   5.641 -0.4092 -0.0504 -0.0199
   13POPC   O31 1647   4.825   7.505   5.471 -0.1359 -0.2591 -0.0489
   13POPC   C31 1648   4.835   7.632   5.458  0.0873  0.3236 -0.2473
   13POPC   O32 1649   4.819   7.715   5.547  0.2560 -0.0721 -0.2811
   13POPC   C32 1650   4.895   7.665   5.324 -0.0381 -0.5912  0.7601
   13POPC   H2X 1651   5.005   7.673   5.334  0.4782 -2.9827 -1.7651
   13POPC   H2Y 1652   4.865   7.770   5.303  0.3849 -0.7734 -0.7970
   13POPC   C23 1653   5.225   7.260   5.295 -0.1803 -0.0801  0.5084
   13POPC   H3R 1654   5.173   7.172   5.251 -0.0819 -0.4594  1.1412
   13POPC   H3S 1655   5.333   7.236   5.287 -0.3900 -0.6328 -0.8386
   13POPC   C24 1656   5.201   7.377   5.198 -0.4941  0.2535 -0.2056
   13POPC   H4R 1657   5.215   7.476   5.247 -1.5355 -0.2894  1.2400
   13POPC   H4S 1658   5.096   7.380   5.163 -0.4133  1.5169 -0.3998
   13POPC   C25 1659   5.293   7.377   5.070  0.0925  0.4484 -0.3943
   13POPC   H5R 1660   5.390   7.396   5.121  0.0726 -1.4875  0.4544
   13POPC   H5S 1661   5.264   7.461   5.002 -0.7718  0.3631 -0.1348
   13POPC   C26 1662   5.297   7.246   4.986 -0.3200  0.6888 -0.0285
   13POPC   H6R 1663   5.336   7.167   5.053  0.4797 -0.1458 -1.4253
   13POPC   H6S 1664   5.372   7.268   4.907 -0.2175  3.1037  0.6611
   13POPC   C27 1665   5.156   7.210   4.939  0.3325  0.2082 -0.0891
   13POPC   H7R 1666   5.133   7.290   4.866  0.2830 -0.7421 -1.1356
   13POPC   H7S 1667   5.081   7.206   5.021 -1.3492 -0.0600 -1.5746
   13POPC   C28 1668   5.152   7.069   4.882 -0.5452 -0.6879  0.0202
   13POPC   H8R 1669   5.049   7.028   4.880 -1.1877  0.8716  0.4149
   13POPC   H8S 1670   5.212   7.004   4.950 -1.7873 -0.5963  1.2365
   13POPC   C29 1671   5.215   7.056   4.742 -0.5809  0.1892  0.3405
   13POPC   H91 1672   5.322   7.081   4.728 -0.8379  1.0543 -0.1486
   13POPC  C210 1673   5.152   7.037   4.629 -0.3791  0.3047 -0.4064
   13POPC  H101 1674   5.215   7.009   4.543 -2.0182 -0.5811 -1.3772
   13POPC  C211 1675   5.000   7.040   4.606 -0.4195 -0.2667  0.5748
   13POPC  H11R 1676   4.961   7.143   4.596  0.7331  0.2950  1.6252
   13POPC  H11S 1677   4.943   6.977   4.677  0.0132 -2.8625 -1.2146
   13POPC  C212 1678   4.965   6.986   4.472 -0.3927 -0.1200 -0.1634
   13POPC  H12R 1679   5.013   6.889   4.448  0.2949 -0.1190  1.1077
   13POPC  H12S 1680   5.001   7.058   4.395 -2.5573  0.7703 -0.4137
   13POPC  C213 1681   4.814   6.983   4.467 -0.0674 -0.7099  0.6177
   13POPC  H13R 1682   4.766   7.082   4.462 -3.5746 -2.3155 -1.1490
   13POPC  H13S 1683   4.768   6.942   4.560  0.4857  0.7347  1.5553
   13POPC  C214 1684   4.758   6.897   4.357 -0.5176  0.0460 -0.3152
   13POPC  H14R 1685   4.679   6.826   4.391  1.5399 -1.5315  1.4092
   13POPC  H14S 1686   4.837   6.829   4.318  0.3330  0.8421 -0.0042
   13POPC  C215 1687   4.692   6.971   4.242  0.2801 -0.1194  0.3905
   13POPC  H15R 1688   4.767   7.047   4.208  0.1710 -0.3899 -0.4852
   13POPC  H15S 1689   4.597   7.025   4.261 -0.0476  1.8628 -5.1545
   13POPC  C216 1690   4.666   6.879   4.122  0.0524  0.1369  0.4848
   13POPC  H16R 1691   4.599   6.924   4.045  1.2407 -1.8682 -1.8586
   13POPC  H16S 1692   4.625   6.779   4.149 -1.7003  1.0818  1.5242
   13POPC  C217 1693   4.795   6.853   4.039 -0.3082 -0.2355  0.2310
   13POPC  H17R 1694   4.850   6.782   4.105 -0.1528  1.1103  1.6186
   13POPC  H17S 1695   4.860   6.942   4.052  0.4255 -0.7541  0.2109
   13POPC  C218 1696   4.788   6.821   3.883 -0.2780 -0.1320 -0.2426
   13POPC  H18R 1697   4.780   6.914   3.823 -2.5832 -0.2209 -0.1494
   13POPC  H18S 1698   4.699   6.760   3.857 -1.6478  1.5046  0.4282
   13POPC  H18T 1699   4.880   6.771   3.846  0.2335 -0.6882  1.6866
   13POPC   C33 1700   4.871   7.568   5.214  0.4181  0.3183 -0.7914
   13POPC   H3X 1701   4.775   7.513   5.221  1.8456 -2.7142 -3.0948
   13POPC   H3Y 1702   4.933   7.477   5.227 -1.5369 -0.7371  2.1530
   13POPC   C34 1703   4.880   7.638   5.075  0.1246  0.7301 -0.0357
   13POPC   H4X 1704   4.982   7.679   5.059  1.5231 -2.3334  0.1745
   13POPC   H4Y 1705   4.807   7.719   5.059  0.7183  1.2106 -0.3573
   13POPC   C35 1706   4.855   7.549   4.950  0.3313 -0.0001  0.3128
   13POPC   H5X 1707   4.747   7.527   4.962  0.0908  1.2168  0.5023
   13POPC   H5Y 1708   4.923   7.461   4.956  0.8821  0.2653 -1.4794
   13POPC   C36 1709   4.850   7.613   4.815  0.3483 -0.5738  0.1666
   13POPC   H6X 1710   4.947   7.666   4.809  0.2783 -0.6120 -1.5180
   13POPC   H6Y 1711   4.759   7.677   4.810 -0.9576 -2.4053 -0.3850
   13POPC   C37 1712   4.863   7.523   4.691  0.3973  0.0227 -0.4028
   13POPC   H7X 1713   4.760   7.487   4.669  1.2470 -2.8858 -0.0358
   13POPC   H7Y 1714   4.932   7.439   4.716  0.1108  0.0421  0.4670
   13POPC   C38 1715   4.919   7.597   4.572  0.0233 -0.2938 -0.3259
   13POPC   H8X 1716   5.030   7.596   4.573  0.1086 -0.7468  3.0327
   13POPC   H8Y 1717   4.890   7.703   4.560 -0.1617 -0.3236 -0.1524
   13POPC   C39 1718   4.880   7.535   4.438 -0.7945  0.0675  0.3948
   13POPC   H9X 1719   4.931   7.598   4.362 -3.5728  1.1127 -0.7187
   13POPC   H9Y 1720   4.772   7.536   4.413 -0.2306 -1.4638 -2.6918
   13POPC  C310 1721   4.935   7.392   4.411  0.5833 -0.6560 -0.7067
   13POPC  H10X 1722   4.869   7.324   4.469 -0.1421 -0.2330 -1.0113
   13POPC  H10Y 1723   5.039   7.397   4.449  0.1226  2.7850  0.5239
   13POPC  C311 1724   4.935   7.350   4.269  0.2554 -0.4281  0.5096
   13POPC  H11X 1725   4.980   7.248   4.267  2.0123  0.3331 -0.9989
   13POPC  H11Y 1726   5.007   7.418   4.220 -0.4926 -0.9312 -1.3758
   13POPC  C312 1727   4.801   7.342   4.186 -0.3485 -0.4535 -0.3552
   13POPC  H12X 1728   4.747   7.438   4.200  1.6001  1.0429 -2.3756
   13POPC  H12Y 1729   4.750   7.256   4.235  2.2398 -2.1478 -0.4092
   13POPC  C313 1730   4.839   7.303   4.043  0.9006 -0.8892 -0.0404
   13POPC  H13X 1731   4.918   7.225   4.045  1.5800 -0.1970  1.6012
   13POPC  H13Y 1732   4.890   7.391   3.999 -0.4607 -0.4155 -0.7258
   13POPC  C314 1733   4.715   7.252   3.964  0.0541 -0.2102 -0.4932
   13POPC  H14X 1734   4.643   7.337   3.956  0.3414  0.3035  1.8372
   13POPC  H14Y 1735   4.662   7.172   4.020  0.6107 -0.7514 -0.7299
   13POPC  C315 1736   4.749   7.208   3.820 -0.6306  0.3804 -0.4497
   13POPC  H15X 1737   4.655   7.169   3.775 -1.3443 -0.9955  2.0656
   13POPC  H15Y 1738   4.826   7.129   3.815  0.5225  1.5015 -0.8684
   13POPC  C316 1739   4.802   7.317   3.730  0.2587  0.1051 -0.4216
   13POPC  H16X 1740   4.905   7.344   3.761  0.0200 -1.3026  1.7729
   13POPC  H16Y 1741   4.741   7.410   3.731 -0.4074 -0.3299  1.1317
   13POPC  H16Z 1742   4.802   7.276   3.626  1.8582 -2.4377  0.4901
   14POPC     N 1743   2.703   3.706   5.763 -0.5038  0.5950 -0.3809
   14POPC   C12 1744   2.798   3.587   5.748  0.1104 -0.0352 -0.3970
   14POPC  H12A 1745   2.791   3.522   5.833  0.1162 -0.8411 -0.9997
   14POPC  H12B 1746   2.901   3.619   5.756 -0.2744  0.7273  2.7567
   14POPC   C13 1747   2.558   3.672   5.744 -0.4209 -0.4476  0.1798
   14POPC  H13A 1748   2.489   3.755   5.739 -3.0322 -2.4510  0.6560
   14POPC  H13B 1749   2.552   3.622   5.648 -0.0665 -1.5019  0.6856
   14POPC  H13C 1750   2.521   3.607   5.822  0.4117  0.5613  1.4459
   14POPC   C14 1751   2.709   3.772   5.897  0.1535  0.3358 -0.3466
   14POPC  H14A 1752   2.649   3.713   5.965 -1.2632 -0.7156 -2.4174
   14POPC  H14B 1753   2.811   3.776   5.932  0.0044  0.4752  0.0758
   14POPC  H14C 1754   2.677   3.875   5.889  0.0856  0.3601  0.1750
   14POPC   C15 1755   2.757   3.813   5.671 -0.6342  0.3076 -0.4670
   14POPC  H15A 1756   2.698   3.902   5.691 -0.3250 -0.1681  3.2451
   14POPC  H15B 1757   2.754   3.775   5.570  0.0646 -0.3184 -0.2539
   14POPC  H15C 1758   2.857   3.844   5.696  0.2853 -0.6607 -2.6230
   14POPC   C11 1759   2.792   3.499   5.618  0.4612 -0.1543  0.2382
   14POPC  H11A 1760   2.890   3.448   5.608 -0.0433 -1.2172  0.6018
   14POPC  H11B 1761   2.774   3.567   5.532 -0.8168 -2.3543 -1.3314
   14POPC     P 1762   2.711   3.271   5.682  0.3814  0.0148 -0.0058
   14POPC   O13 1763   2.603   3.179   5.637  0.0486 -0.1074 -0.4736
   14POPC   O14 1764   2.722   3.280   5.829  0.4669  0.2287 -0.9300
   14POPC   O12 1765   2.675   3.412   5.621 -0.1406  0.0788 -0.7388
   14POPC   O11 1766   2.850   3.235   5.611 -0.3039 -0.2027 -0.1650
   14POPC    C1 1767   2.880   3.094   5.582 -0.1317 -1.2595  0.0334
   14POPC    HA 1768   2.798   3.022   5.602  1.3928 -1.9842  5.0085
   14POPC    HB 1769   2.968   3.056   5.639  0.4345  0.8474  0.6341
   14POPC    C2 1770   2.910   3.082   5.432  0.6334  0.5262  0.6588
   14POPC    HS 1771   2.913   2.973   5.410  1.7341  0.8689 -1.0835
   14POPC   O21 1772   3.036   3.149   5.401 -0.5923 -0.0276  0.5009
   14POPC   C21 1773   3.149   3.093   5.436 -0.5145 -0.3736 -0.6352
   14POPC   O22 1774   3.170   2.986   5.492 -0.2434  0.0028 -0.3983
   14POPC   C22 1775   3.255   3.188   5.379 -0.5234 -0.2222  0.7824
   14POPC   H2R 1776   3.275   3.269   5.453  0.7233  0.3045 -0.1101
   14POPC   H2S 1777   3.215   3.226   5.282  1.0050  0.7635  0.5010
   14POPC    C3 1778   2.800   3.147   5.347 -0.0815 -0.1560  0.1928
   14POPC    HX 1779   2.805   3.257   5.363  1.1211 -0.4293  1.9660
   14POPC    HY 1780   2.699   3.127   5.389 -0.0348  0.8068  0.7907
   14POPC   O31 1781   2.815   3.101   5.206 -0.1253  0.0193 -0.1150
   14POPC   C31 1782   2.721   3.011   5.166 -0.1683  0.1486 -0.7422
   14POPC   O32 1783   2.652   2.944   5.248 -0.2218 -0.4605  0.1526
   14POPC   C32 1784   2.720   2.997   5.014  0.2256  0.5091  0.1352
   14POPC   H2X 1785   2.829   3.004   4.990  0.5110 -0.2179  1.1604
   14POPC   H2Y 1786   2.663   3.081   4.969 -0.6924 -0.5426 -0.7327
   14POPC   C23 1787   3.389   3.117   5.357 -0.5051  0.3462 -0.0498
   14POPC   H3R 1788   3.391   3.032   5.428 -2.6238  0.3533  0.0708
   14POPC   H3S 1789   3.464   3.192   5.391  0.1529  0.6791 -2.0733
   14POPC   C24 1790   3.425   3.075   5.214  0.2226  0.0084 -0.1139
   14POPC   H4R 1791   3.409   3.161   5.146  2.9205 -0.0866 -1.0067
   14POPC   H4S 1792   3.361   2.990   5.180 -0.3193  1.1796 -2.2190
   14POPC   C25 1793   3.573   3.038   5.209 -0.0899  0.9580 -0.1555
   14POPC   H5R 1794   3.600   2.964   5.288 -0.7579  0.5434 -0.3083
   14POPC   H5S 1795   3.630   3.132   5.225 -1.0320  2.0313 -2.5510
   14POPC   C26 1796   3.612   2.976   5.074 -0.8986  0.6624 -0.8018
   14POPC   H6R 1797   3.549   2.884   5.065  1.4575 -1.5129  2.5589
   14POPC   H6S 1798   3.720   2.951   5.084 -1.5583 -1.6748  1.5641
   14POPC   C27 1799   3.600   3.075   4.962 -0.1910  0.5125  0.0828
   14POPC   H7R 1800   3.649   3.173   4.976  0.1752  0.3410 -0.0017
   14POPC   H7S 1801   3.493   3.104   4.952  0.2738  2.8102  1.0697
   14POPC   C28 1802   3.655   3.013   4.833 -0.0450  0.0965  0.2356
   14POPC   H8R 1803   3.750   2.964   4.861 -1.9437 -2.0681  3.7049
   14POPC   H8S 1804   3.677   3.104   4.774  3.0448 -1.3447 -1.0548
   14POPC   C29 1805   3.563   2.918   4.771 -0.0733  1.3061  1.3345
   14POPC   H91 1806   3.500   2.863   4.842  2.8874 -0.0090  3.1548
   14POPC  C210 1807   3.546   2.895   4.643  0.1217 -0.3550 -0.5146
   14POPC  H101 1808   3.462   2.829   4.617 -0.1244 -0.8316  1.4054
   14POPC  C211 1809   3.643   2.942   4.535  0.0184 -0.3869 -0.2703
   14POPC  H11R 1810   3.675   2.846   4.488  0.6984 -0.3626  0.1232
   14POPC  H11S 1811   3.744   2.983   4.556  0.4212 -1.1312 -0.6873
   14POPC  C212 1812   3.580   3.025   4.425 -0.4773 -0.1681 -0.3097
   14POPC  H12R 1813   3.566   3.129   4.464 -1.2262  1.8614 -5.2146
   14POPC  H12S 1814   3.483   2.989   4.386 -1.0558  2.0006 -1.0599
   14POPC  C213 1815   3.672   3.046   4.299 -0.0014 -0.1363 -0.2573
   14POPC  H13R 1816   3.668   2.950   4.243 -0.8275 -0.0904 -0.2923
   14POPC  H13S 1817   3.772   3.055   4.347 -0.6676 -1.8306  1.6264
   14POPC  C214 1818   3.628   3.165   4.210  0.3415  0.4370 -0.7686
   14POPC  H14R 1819   3.696   3.173   4.123  0.6884  2.1014 -0.3837
   14POPC  H14S 1820   3.630   3.261   4.266 -0.8665  0.9137 -1.5078
   14POPC  C215 1821   3.482   3.155   4.167 -0.2363 -0.4370  0.0523
   14POPC  H15R 1822   3.422   3.178   4.257  1.4746  0.3833  1.0421
   14POPC  H15S 1823   3.479   3.048   4.139 -1.2041 -0.7777  1.3866
   14POPC  C216 1824   3.441   3.253   4.054 -0.0158  0.6360 -0.5164
   14POPC  H16R 1825   3.518   3.232   3.976  1.5241 -0.1346  1.1262
   14POPC  H16S 1826   3.451   3.358   4.089 -0.3772  1.1485 -1.9191
   14POPC  C217 1827   3.303   3.218   3.994 -0.6848  0.4632 -0.0682
   14POPC  H17R 1828   3.220   3.237   4.066 -0.5111 -3.9883  1.6402
   14POPC  H17S 1829   3.315   3.110   3.971  1.7127  0.7136 -0.1914
   14POPC  C218 1830   3.278   3.286   3.864  0.6307 -0.0776 -0.0161
   14POPC  H18R 1831   3.176   3.265   3.826  0.3130 -1.7404  1.6131
   14POPC  H18S 1832   3.348   3.242   3.789  1.3754  0.8107  0.1405
   14POPC  H18T 1833   3.298   3.394   3.878  0.8000 -0.1763  0.5116
   14POPC   C33 1834   2.672   2.854   4.969 -0.2799 -0.7270  0.3786
   14POPC   H3X 1835   2.601   2.811   5.043 -0.7175  1.8615  1.5891
   14POPC   H3Y 1836   2.759   2.786   4.959 -0.3837 -0.9607  0.9978
   14POPC   C34 1837   2.599   2.859   4.840 -0.3444  0.6226  0.6080
   14POPC   H4X 1838   2.640   2.942   4.778 -1.4273  0.1376 -0.8180
   14POPC   H4Y 1839   2.496   2.891   4.868 -0.2078  2.7881 -1.0638
   14POPC   C35 1840   2.607   2.736   4.754 -0.6889  0.0934 -0.4158
   14POPC   H5X 1841   2.560   2.652   4.810  0.8240 -1.1151 -0.8719
   14POPC   H5Y 1842   2.708   2.715   4.713 -1.2237  3.2494 -3.9260
   14POPC   C36 1843   2.520   2.750   4.625  0.8815 -0.2937 -0.2414
   14POPC   H6X 1844   2.534   2.855   4.591 -0.8736  0.2692  0.6344
   14POPC   H6Y 1845   2.419   2.751   4.671  0.9574  1.2963 -0.0249
   14POPC   C37 1846   2.536   2.659   4.504  0.1119  0.5569 -0.2135
   14POPC   H7X 1847   2.531   2.556   4.545 -1.8269  1.5461  2.3055
   14POPC   H7Y 1848   2.630   2.685   4.449  0.9147  1.4860  1.5278
   14POPC   C38 1849   2.427   2.670   4.402  0.2825  0.4760  0.0604
   14POPC   H8X 1850   2.417   2.772   4.360 -0.2682  0.2411 -0.3870
   14POPC   H8Y 1851   2.331   2.638   4.448 -0.2384  1.4631 -0.3059
   14POPC   C39 1852   2.442   2.581   4.279 -0.5060  0.1211 -0.2258
   14POPC   H9X 1853   2.392   2.483   4.293  0.3196 -0.2973 -0.1639
   14POPC   H9Y 1854   2.552   2.586   4.264 -0.5597  1.9206 -0.2838
   14POPC  C310 1855   2.362   2.633   4.155  0.1718 -0.2667  0.1490
   14POPC  H10X 1856   2.384   2.742   4.158  0.7779 -0.3823  0.0944
   14POPC  H10Y 1857   2.253   2.626   4.176  0.0229 -0.5493 -0.6865
   14POPC  C311 1858   2.407   2.573   4.019  0.4391  0.0948  0.0812
   14POPC  H11X 1859   2.334   2.557   3.937  0.8297 -0.8733 -0.0895
   14POPC  H11Y 1860   2.447   2.472   4.046 -1.4380 -1.0433 -1.1606
   14POPC  C312 1861   2.519   2.650   3.949  0.4426 -0.4192  0.3862
   14POPC  H12X 1862   2.585   2.579   3.896  1.8306  0.3398  1.0334
   14POPC  H12Y 1863   2.589   2.693   4.024  1.6519  1.0245 -1.4751
   14POPC  C313 1864   2.481   2.752   3.839  0.3508 -0.0550 -0.4146
   14POPC  H13X 1865   2.399   2.704   3.781 -1.8210  1.8254  0.9445
   14POPC  H13Y 1866   2.576   2.774   3.785  0.8949 -1.6307 -0.1592
   14POPC  C314 1867   2.418   2.888   3.893 -0.5269 -0.4054  0.5821
   14POPC  H14X 1868   2.484   2.944   3.962 -2.5056  1.8427  0.7916
   14POPC  H14Y 1869   2.324   2.868   3.950  0.5868 -2.0704  1.9202
   14POPC  C315 1870   2.394   2.973   3.768  0.4749 -0.4738 -0.0878
   14POPC  H15X 1871   2.340   2.906   3.698  1.7966 -0.4209 -1.1908
   14POPC  H15Y 1872   2.491   2.994   3.720 -0.3159  0.4606 -1.3280
   14POPC  C316 1873   2.302   3.093   3.793 -0.0185  0.0064 -0.5914
   14POPC  H16X 1874   2.198   3.071   3.824 -0.6736  1.8004 -1.4156
   14POPC  H16Y 1875   2.292   3.149   3.698 -0.1698 -0.0139 -0.5879
   14POPC  H16Z 1876   2.345   3.157   3.873 -1.6177 -0.7403  0.9466
   15POPC     N 1877   5.288   1.681   6.564 -0.3227  0.1943  0.2667
   15POPC   C12 1878   5.188   1.666   6.444  0.6735 -0.8025 -0.0096
   15POPC  H12A 1879   5.178   1.767   6.407  2.2646 -0.8015 -0.5409
   15POPC  H12B 1880   5.097   1.624   6.484 -1.0331  0.7005 -2.0876
   15POPC   C13 1881   5.319   1.549   6.622 -0.8936 -0.2136  0.0394
   15POPC  H13A 1882   5.377   1.483   6.558  3.2324  1.4347  1.6930
   15POPC  H13B 1883   5.381   1.563   6.709  0.3753  0.5659 -0.9314
   15POPC  H13C 1884   5.236   1.490   6.657  0.1903 -2.1417 -0.4771
   15POPC   C14 1885   5.415   1.745   6.516  0.0924  0.0335 -0.0943
   15POPC  H14A 1886   5.441   1.695   6.424 -0.0670  2.8551 -1.8007
   15POPC  H14B 1887   5.403   1.848   6.484  0.3182  0.1525  0.1995
   15POPC  H14C 1888   5.497   1.741   6.586  1.6680  0.4112 -1.8340
   15POPC   C15 1889   5.245   1.762   6.676  0.2226  0.8375  0.2682
   15POPC  H15A 1890   5.327   1.774   6.745  0.3453 -0.7796  0.4332
   15POPC  H15B 1891   5.177   1.704   6.736  2.5929  0.3805  2.7312
   15POPC  H15C 1892   5.206   1.858   6.646 -1.8576  0.4336  1.4783
   15POPC   C11 1893   5.225   1.582   6.313 -0.2595  0.3993 -0.2426
   15POPC  H11A 1894   5.130   1.560   6.259  0.0540 -0.6277 -0.3907
   15POPC  H11B 1895   5.253   1.480   6.347 -0.6042  1.1001  2.3168
   15POPC     P 1896   5.310   1.773   6.157  0.0755  0.0510  0.2529
   15POPC   O13 1897   5.441   1.821   6.108 -0.7211  0.5045  0.0828
   15POPC   O14 1898   5.224   1.859   6.244 -0.2728 -0.0339  0.3581
   15POPC   O12 1899   5.336   1.642   6.239 -0.3166  0.0497  0.1427
   15POPC   O11 1900   5.229   1.717   6.026  0.2323  0.2484 -0.3316
   15POPC    C1 1901   5.252   1.592   5.956 -0.6809 -0.0766 -0.4244
   15POPC    HA 1902   5.277   1.507   6.024  0.4930 -1.5852 -2.6325
   15POPC    HB 1903   5.341   1.605   5.892 -0.0216 -0.2729  0.4353
   15POPC    C2 1904   5.135   1.580   5.850 -0.6595 -0.0955  0.0573
   15POPC    HS 1905   5.152   1.504   5.771 -2.1798  0.8552 -1.2636
   15POPC   O21 1906   5.120   1.701   5.777  0.0168 -0.2624 -0.5766
   15POPC   C21 1907   5.198   1.737   5.677 -0.6300  0.4078 -1.4011
   15POPC   O22 1908   5.292   1.671   5.633 -0.0639 -0.3190  0.8804
   15POPC   C22 1909   5.171   1.882   5.631  0.2778  0.7428 -0.0565
   15POPC   H2R 1910   5.249   1.903   5.555  2.4126  1.8518  2.2795
   15POPC   H2S 1911   5.177   1.954   5.715 -0.4687  0.8302 -0.0780
   15POPC    C3 1912   4.995   1.534   5.905  0.2389 -0.0524 -0.1613
   15POPC    HX 1913   4.960   1.599   5.988 -1.8042 -0.8184 -0.3513
   15POPC    HY 1914   5.016   1.429   5.937  0.6138 -1.9239 -5.5667
   15POPC   O31 1915   4.901   1.525   5.802 -0.2550  0.0077  0.4294
   15POPC   C31 1916   4.827   1.627   5.774  1.1703 -0.0382 -0.1194
   15POPC   O32 1917   4.834   1.734   5.828  0.4717  0.0303 -0.5187
   15POPC   C32 1918   4.730   1.594   5.662 -0.2951 -0.0214  0.4601
   15POPC   H2X 1919   4.663   1.511   5.691 -0.8466  0.2524  0.0094
   15POPC   H2Y 1920   4.782   1.542   5.579 -1.0181  1.9352 -1.3451
   15POPC   C23 1921   5.027   1.893   5.578 -0.3124 -0.4377  0.1046
   15POPC   H3R 1922   4.974   1.988   5.598  1.7257  0.4345  1.7701
   15POPC   H3S 1923   4.967   1.826   5.643 -2.4494  1.6207  0.3797
   15POPC   C24 1924   5.017   1.846   5.435  0.3881  0.1525  0.1086
   15POPC   H4R 1925   4.910   1.828   5.411  0.5468 -2.6747  1.1118
   15POPC   H4S 1926   5.074   1.753   5.416 -0.0690 -0.1047 -0.0038
   15POPC   C25 1927   5.082   1.952   5.331  0.0554 -0.5925  0.4161
   15POPC   H5R 1928   5.182   1.981   5.370  1.4112  0.9648 -3.6508
   15POPC   H5S 1929   5.025   2.046   5.320 -0.7098 -1.2654 -1.9701
   15POPC   C26 1930   5.095   1.888   5.191  0.5776 -0.3999  0.4662
   15POPC   H6R 1931   5.145   1.789   5.196  3.5981  1.0367  0.9374
   15POPC   H6S 1932   5.175   1.938   5.131  0.5428  1.2573  1.7302
   15POPC   C27 1933   4.958   1.884   5.124  0.6506  0.8299 -0.1898
   15POPC   H7R 1934   4.918   1.987   5.107 -2.3217 -0.2456 -0.3492
   15POPC   H7S 1935   4.887   1.830   5.190  0.2497  2.2938  0.6376
   15POPC   C28 1936   4.974   1.822   4.982  0.8046 -0.0619  0.1673
   15POPC   H8R 1937   5.030   1.727   4.992  3.6303  1.7050  3.9749
   15POPC   H8S 1938   5.042   1.884   4.919 -0.8660  0.6556 -0.9889
   15POPC   C29 1939   4.839   1.802   4.916  0.3336  0.5508  0.2056
   15POPC   H91 1940   4.794   1.702   4.929 -0.3928  0.8972  0.4429
   15POPC  C210 1941   4.784   1.878   4.823 -0.0375 -0.0443 -0.0783
   15POPC  H101 1942   4.683   1.858   4.786 -0.1280  0.4315 -0.0973
   15POPC  C211 1943   4.838   2.010   4.778 -0.5778 -0.0438  0.2813
   15POPC  H11R 1944   4.944   2.021   4.809  0.0156 -0.8717 -1.3302
   15POPC  H11S 1945   4.779   2.096   4.816  0.4021  1.3172 -1.2030
   15POPC  C212 1946   4.852   2.011   4.627  0.4424 -0.3179  0.2574
   15POPC  H12R 1947   4.899   1.918   4.587  1.2441  0.4549 -0.6460
   15POPC  H12S 1948   4.926   2.088   4.596  1.1542 -0.0760  2.4040
   15POPC  C213 1949   4.725   2.041   4.553 -0.2861 -0.1823 -0.2720
   15POPC  H13R 1950   4.712   2.149   4.573  1.6710  0.1248 -0.4653
   15POPC  H13S 1951   4.653   1.969   4.597 -0.1112 -0.6645 -0.7552
   15POPC  C214 1952   4.737   2.019   4.400 -0.7576  0.3877  0.1329
   15POPC  H14R 1953   4.834   2.055   4.357 -0.4105 -1.4836 -0.7731
   15POPC  H14S 1954   4.662   2.077   4.342  0.3105 -0.3275 -2.1182
   15POPC  C215 1955   4.722   1.873   4.354 -0.0935 -0.3299 -0.4201
   15POPC  H15R 1956   4.637   1.822   4.405 -0.2750 -0.6840 -1.0645
   15POPC  H15S 1957   4.814   1.815   4.377 -1.1133 -1.2315  1.6006
   15POPC  C216 1958   4.679   1.860   4.207  0.5035 -0.5352  0.4132
   15POPC  H16R 1959   4.745   1.913   4.135  1.8926  0.9431  2.6601
   15POPC  H16S 1960   4.572   1.887   4.193 -0.1625 -3.0868  0.0349
   15POPC  C217 1961   4.692   1.722   4.148 -0.0476 -1.1753  0.0277
   15POPC  H17R 1962   4.624   1.721   4.060 -0.8977  1.7115  0.5160
   15POPC  H17S 1963   4.640   1.651   4.215 -0.6110 -1.1590 -0.3842
   15POPC  C218 1964   4.833   1.667   4.120  0.2116  0.2327 -0.3016
   15POPC  H18R 1965   4.887   1.744   4.061 -0.8606  2.2331  1.1945
   15POPC  H18S 1966   4.830   1.572   4.063  0.0208  1.6914 -2.8684
   15POPC  H18T 1967   4.886   1.644   4.215  0.1551 -0.9234 -0.5299
   15POPC   C33 1968   4.666   1.711   5.596 -0.2004  0.3436  0.2818
   15POPC   H3X 1969   4.732   1.795   5.565  0.4698 -0.1430  0.3572
   15POPC   H3Y 1970   4.588   1.750   5.664 -2.4630 -1.3905 -1.1431
   15POPC   C34 1971   4.584   1.663   5.469  0.1961 -0.1413 -0.8921
   15POPC   H4X 1972   4.507   1.739   5.443  0.3427  0.2060 -0.3296
   15POPC   H4Y 1973   4.526   1.575   5.504 -2.6971  2.1484  0.5814
   15POPC   C35 1974   4.658   1.618   5.343 -0.1146  0.9961 -0.2210
   15POPC   H5X 1975   4.723   1.531   5.365 -1.5785 -1.0716 -3.4096
   15POPC   H5Y 1976   4.727   1.700   5.314  0.8499  1.1162  2.1969
   15POPC   C36 1977   4.571   1.570   5.223  0.9174 -0.2468  0.0392
   15POPC   H6X 1978   4.497   1.649   5.201  0.4648 -0.2002  1.6311
   15POPC   H6Y 1979   4.518   1.475   5.246 -0.0875 -0.0039 -1.1554
   15POPC   C37 1980   4.644   1.530   5.092 -0.0049  0.4500 -0.3319
   15POPC   H7X 1981   4.687   1.428   5.103 -0.0797  0.2949 -1.3968
   15POPC   H7Y 1982   4.724   1.600   5.061  0.0093 -0.8499 -3.6806
   15POPC   C38 1983   4.548   1.524   4.968  0.2004  0.0593  0.1311
   15POPC   H8X 1984   4.494   1.621   4.960  1.4441  0.7170 -0.6884
   15POPC   H8Y 1985   4.470   1.447   4.986  0.6870 -0.5037 -0.1647
   15POPC   C39 1986   4.632   1.484   4.845 -0.0459  0.1192 -0.1632
   15POPC   H9X 1987   4.613   1.377   4.819  0.2950  0.2630 -1.0281
   15POPC   H9Y 1988   4.740   1.493   4.872  0.7216 -0.4388 -2.7958
   15POPC  C310 1989   4.602   1.567   4.717 -0.4437  1.1447 -0.7766
   15POPC  H10X 1990   4.576   1.674   4.736  0.0070  1.4643 -1.8738
   15POPC  H10Y 1991   4.503   1.528   4.686 -1.1191  1.1072  1.2593
   15POPC  C311 1992   4.714   1.561   4.604  0.4093 -0.0102 -0.1228
   15POPC  H11X 1993   4.807   1.597   4.652 -0.7985  1.5800  1.1236
   15POPC  H11Y 1994   4.685   1.626   4.519  0.7353 -2.4320 -2.2099
   15POPC  C312 1995   4.755   1.422   4.555  0.1452  0.1549 -0.0830
   15POPC  H12X 1996   4.665   1.370   4.516 -0.3082  1.4794 -0.8770
   15POPC  H12Y 1997   4.779   1.360   4.644  0.9239 -1.9851 -1.6888
   15POPC  C313 1998   4.860   1.416   4.453 -0.0505 -0.6632  0.3046
   15POPC  H13X 1999   4.945   1.470   4.500 -1.0374  1.3185 -0.0715
   15POPC  H13Y 2000   4.836   1.475   4.362  0.5423 -1.9244 -0.7152
   15POPC  C314 2001   4.900   1.272   4.410  0.0750 -0.6367 -0.2615
   15POPC  H14X 2002   4.810   1.208   4.397 -0.4984  0.0687  0.1131
   15POPC  H14Y 2003   4.968   1.222   4.481 -1.0931 -0.1961  1.2199
   15POPC  C315 2004   4.962   1.284   4.274  0.0491  0.2834  0.3333
   15POPC  H15X 2005   4.894   1.347   4.213  1.2711  0.9966 -0.3405
   15POPC  H15Y 2006   4.969   1.190   4.214  0.1180  0.0437  0.7138
   15POPC  C316 2007   5.100   1.359   4.284  0.7840  0.4297 -0.8535
   15POPC  H16X 2008   5.128   1.401   4.185 -1.6696  1.4445 -1.1752
   15POPC  H16Y 2009   5.175   1.291   4.330 -1.1284 -1.0741  0.2191
   15POPC  H16Z 2010   5.103   1.447   4.352  1.9952  0.2716 -0.6761
   16POPC     N 2011   5.355   5.636   5.683 -0.4253 -0.2189 -0.3999
   16POPC   C12 2012   5.351   5.560   5.548  0.4786 -0.2610 -0.1955
   16POPC  H12A 2013   5.327   5.625   5.465 -2.7663 -1.0260 -0.0139
   16POPC  H12B 2014   5.262   5.499   5.540 -0.1319  0.5490  0.3035
   16POPC   C13 2015   5.405   5.543   5.791 -0.0059  0.7992 -0.1330
   16POPC  H13A 2016   5.350   5.450   5.798  0.0239  0.8172  0.3237
   16POPC  H13B 2017   5.507   5.514   5.769 -0.4173 -1.5373  0.7068
   16POPC  H13C 2018   5.394   5.588   5.888 -1.8226 -1.9114  1.0389
   16POPC   C14 2019   5.451   5.748   5.674  0.3237 -0.2750  0.2024
   16POPC  H14A 2020   5.395   5.832   5.635  0.8815 -0.0164 -0.0557
   16POPC  H14B 2021   5.495   5.765   5.771 -3.9635  1.2464  2.1110
   16POPC  H14C 2022   5.531   5.730   5.602  0.4005  3.0135 -0.6776
   16POPC   C15 2023   5.221   5.697   5.709  0.2491  0.3212 -0.3966
   16POPC  H15A 2024   5.141   5.624   5.702  1.4044 -0.9619 -0.7658
   16POPC  H15B 2025   5.199   5.777   5.640 -2.5612  0.8180  0.9571
   16POPC  H15C 2026   5.218   5.733   5.811 -0.7800 -2.0348  0.4718
   16POPC   C11 2027   5.474   5.472   5.527  0.4024  0.0002 -0.3268
   16POPC  H11A 2028   5.564   5.520   5.570  0.1395  0.3916 -0.2102
   16POPC  H11B 2029   5.488   5.466   5.417 -1.2155  1.7018 -0.6701
   16POPC     P 2030   5.342   5.241   5.551 -0.8888 -0.0821 -0.2975
   16POPC   O13 2031   5.209   5.304   5.578  0.2607 -0.6448  0.6428
   16POPC   O14 2032   5.371   5.103   5.608  0.9463 -0.1937 -0.3779
   16POPC   O12 2033   5.454   5.343   5.591 -0.5343 -1.5436 -0.0149
   16POPC   O11 2034   5.364   5.234   5.396 -0.2704  0.2804  0.6888
   16POPC    C1 2035   5.300   5.141   5.312 -0.5668  0.0209 -0.1175
   16POPC    HA 2036   5.189   5.153   5.308 -0.6149  0.0456  0.9946
   16POPC    HB 2037   5.315   5.037   5.348  1.9581  0.4571  0.2663
   16POPC    C2 2038   5.338   5.163   5.157  0.4421 -0.4190 -0.0137
   16POPC    HS 2039   5.263   5.105   5.099  1.7579 -0.7747 -1.4107
   16POPC   O21 2040   5.473   5.128   5.126  0.1679  0.5647 -0.0509
   16POPC   C21 2041   5.489   5.001   5.138  0.5394  0.5455  0.0348
   16POPC   O22 2042   5.398   4.918   5.157 -0.3481  0.3297 -0.1999
   16POPC   C22 2043   5.631   4.956   5.127  0.2036  0.2695 -0.3266
   16POPC   H2R 2044   5.659   4.940   5.233 -0.9052  1.9407  0.2490
   16POPC   H2S 2045   5.687   5.042   5.084 -1.5755  0.1002 -3.2394
   16POPC    C3 2046   5.320   5.314   5.133 -0.2972 -0.8987  1.3497
   16POPC    HX 2047   5.387   5.374   5.198 -1.1861  1.3396  0.2921
   16POPC    HY 2048   5.217   5.338   5.168  0.1807 -1.2403  3.0760
   16POPC   O31 2049   5.364   5.352   5.005 -0.2297  0.2096 -0.0034
   16POPC   C31 2050   5.266   5.373   4.913 -0.1543  0.1174  0.1750
   16POPC   O32 2051   5.150   5.352   4.930  0.3490 -0.0128  0.0964
   16POPC   C32 2052   5.323   5.412   4.780 -0.3242 -0.1428 -0.5182
   16POPC   H2X 2053   5.419   5.468   4.784  0.3179 -0.8673 -3.3076
   16POPC   H2Y 2054   5.247   5.482   4.741 -1.5890 -0.1913  1.6784
   16POPC   C23 2055   5.662   4.818   5.057  0.3688 -0.6565  0.1480
   16POPC   H3R 2056   5.627   4.833   4.953  1.8010  1.1315 -0.1430
   16POPC   H3S 2057   5.604   4.733   5.098  0.5535 -0.7670  0.1789
   16POPC   C24 2058   5.810   4.780   5.052  0.5758  0.0297  0.3642
   16POPC   H4R 2059   5.833   4.697   4.981 -0.2169 -0.6069  0.8315
   16POPC   H4S 2060   5.841   4.746   5.154 -1.4041  0.8996  1.3203
   16POPC   C25 2061   5.901   4.891   5.011 -0.1996 -0.1597 -0.0993
   16POPC   H5R 2062   5.920   4.971   5.085  2.0452 -1.1712  0.5199
   16POPC   H5S 2063   5.864   4.927   4.913 -0.8425 -0.7704 -0.0852
   16POPC   C26 2064   6.047   4.840   5.001  0.5640 -0.0432  0.1482
   16POPC   H6R 2065   6.056   4.770   4.916  1.2040 -0.4019  0.5043
   16POPC   H6S 2066   6.068   4.769   5.084 -0.1981 -0.8955 -0.3618
   16POPC   C27 2067   6.156   4.946   5.011  0.8506 -0.4135  0.0596
   16POPC   H7R 2068   6.247   4.889   4.982  0.7093  0.7365 -3.0030
   16POPC   H7S 2069   6.176   4.984   5.114 -1.8837  2.1627 -0.2115
   16POPC   C28 2070   6.135   5.073   4.929 -0.4773 -0.4181 -0.2601
   16POPC   H8R 2071   6.212   5.153   4.937 -0.3032 -0.7414  1.6947
   16POPC   H8S 2072   6.045   5.132   4.955  0.9346  2.4307 -1.3668
   16POPC   C29 2073   6.131   5.040   4.782  0.4589 -0.0757 -0.2985
   16POPC   H91 2074   6.048   4.975   4.750 -0.1678 -1.3371  3.4012
   16POPC  C210 2075   6.202   5.079   4.678 -1.0195  0.4755  0.7884
   16POPC  H101 2076   6.164   5.035   4.585 -0.5430 -0.3283  0.9566
   16POPC  C211 2077   6.328   5.165   4.676 -0.4180  0.2052  0.1605
   16POPC  H11R 2078   6.420   5.103   4.669 -1.0859 -1.1898  2.5268
   16POPC  H11S 2079   6.339   5.219   4.773  1.6332  0.8724 -0.3908
   16POPC  C212 2080   6.309   5.277   4.575 -0.6289  0.5246 -0.1146
   16POPC  H12R 2081   6.233   5.349   4.614 -0.2666  0.7747  0.1426
   16POPC  H12S 2082   6.266   5.226   4.487  2.4596 -0.8868 -0.9591
   16POPC  C213 2083   6.442   5.343   4.527  0.2338  0.3041  0.2216
   16POPC  H13R 2084   6.520   5.265   4.534  0.2294  0.3716  1.0517
   16POPC  H13S 2085   6.479   5.427   4.589  2.2091  1.4862 -2.3589
   16POPC  C214 2086   6.434   5.383   4.379 -0.0701 -0.5408 -0.3809
   16POPC  H14R 2087   6.332   5.417   4.348  0.1441  0.0050 -0.4908
   16POPC  H14S 2088   6.445   5.288   4.322  1.3289 -1.0201  0.6375
   16POPC  C215 2089   6.540   5.485   4.338  0.6082 -0.6270  0.2221
   16POPC  H15R 2090   6.518   5.590   4.369 -0.3196 -0.5261 -0.7011
   16POPC  H15S 2091   6.533   5.481   4.227 -3.0508 -1.4826  0.3493
   16POPC  C216 2092   6.686   5.460   4.377  0.8450  0.0632  0.9554
   16POPC  H16R 2093   6.715   5.359   4.344 -2.2610 -0.9806  1.1383
   16POPC  H16S 2094   6.694   5.467   4.488 -2.5353  0.9183  1.2764
   16POPC  C217 2095   6.780   5.569   4.318 -0.0898 -0.2918 -0.8186
   16POPC  H17R 2096   6.764   5.664   4.373  1.4185 -1.1692  1.2640
   16POPC  H17S 2097   6.752   5.590   4.213 -0.3400 -0.4733 -0.7891
   16POPC  C218 2098   6.928   5.534   4.324  0.4438  0.0963 -0.2313
   16POPC  H18R 2099   6.951   5.433   4.282 -1.3602 -0.5346  0.2077
   16POPC  H18S 2100   6.961   5.513   4.428  1.1717 -2.2703 -0.8835
   16POPC  H18T 2101   6.990   5.612   4.275  1.7084 -0.5767  0.2368
   16POPC   C33 2102   5.350   5.304   4.679  0.8280  0.5724 -0.4571
   16POPC   H3X 2103   5.434   5.243   4.719 -0.0742  1.1255  2.4913
   16POPC   H3Y 2104   5.403   5.343   4.590 -1.2028  2.2980 -0.9847
   16POPC   C34 2105   5.235   5.214   4.640  0.0216  0.2990 -0.8653
   16POPC   H4X 2106   5.160   5.264   4.575  1.6466 -0.8865 -3.8463
   16POPC   H4Y 2107   5.185   5.176   4.732 -0.6295 -0.6270 -1.5925
   16POPC   C35 2108   5.271   5.093   4.557  0.2927  0.4853 -0.0539
   16POPC   H5X 2109   5.336   5.029   4.621  0.2458  0.4387 -0.0539
   16POPC   H5Y 2110   5.320   5.128   4.464 -0.3621 -1.6502 -1.2409
   16POPC   C36 2111   5.153   5.008   4.535  0.2457 -0.5266 -0.7593
   16POPC   H6X 2112   5.064   5.069   4.508 -0.5333  0.0512  2.6886
   16POPC   H6Y 2113   5.131   4.963   4.634  1.9659 -1.3975 -0.7381
   16POPC   C37 2114   5.181   4.890   4.437 -0.3891 -0.7141 -0.0525
   16POPC   H7X 2115   5.263   4.831   4.483 -1.5620 -0.2859  2.8569
   16POPC   H7Y 2116   5.206   4.921   4.334  0.9524  0.0145  0.4692
   16POPC   C38 2117   5.053   4.808   4.424 -0.1485  1.3476 -0.6222
   16POPC   H8X 2118   4.992   4.871   4.356 -0.6908  0.3138 -1.1231
   16POPC   H8Y 2119   5.002   4.808   4.523 -2.2450 -2.0277 -1.5243
   16POPC   C39 2120   5.069   4.658   4.381 -0.2405  0.8568  0.4504
   16POPC   H9X 2121   5.124   4.602   4.459 -1.5178  0.8898  1.4014
   16POPC   H9Y 2122   5.140   4.665   4.296 -2.2137 -0.7451 -1.4414
   16POPC  C310 2123   4.933   4.592   4.333  0.3321  0.0705 -1.3355
   16POPC  H10X 2124   4.891   4.657   4.254 -2.4490 -0.6435 -0.5555
   16POPC  H10Y 2125   4.867   4.574   4.421  2.2508  0.1234  0.1809
   16POPC  C311 2126   4.952   4.461   4.258  0.6294 -0.3271  0.2108
   16POPC  H11X 2127   4.982   4.382   4.329 -0.9251  0.0730  1.3787
   16POPC  H11Y 2128   5.026   4.462   4.176 -0.3518 -0.6454 -0.7048
   16POPC  C312 2129   4.814   4.407   4.199  0.5098  0.0604 -0.5299
   16POPC  H12X 2130   4.766   4.487   4.139  0.4177  0.6919  0.3659
   16POPC  H12Y 2131   4.751   4.388   4.289  1.5075  1.3309  0.4844
   16POPC  C313 2132   4.821   4.279   4.115 -0.2544 -0.1820 -0.0875
   16POPC  H13X 2133   4.830   4.195   4.187  1.5991  1.3481  1.5909
   16POPC  H13Y 2134   4.916   4.264   4.060  0.0637 -1.0413  0.6853
   16POPC  C314 2135   4.692   4.261   4.037 -0.1548 -0.5535  0.2428
   16POPC  H14X 2136   4.690   4.340   3.958  0.8527 -1.4326 -0.7125
   16POPC  H14Y 2137   4.609   4.282   4.107 -0.5477 -1.1008 -0.0555
   16POPC  C315 2138   4.678   4.125   3.968 -0.3486  0.0990 -0.0030
   16POPC  H15X 2139   4.659   4.042   4.039  0.3512 -0.9274 -0.9703
   16POPC  H15Y 2140   4.777   4.103   3.923 -0.2235 -1.4328  0.9829
   16POPC  C316 2141   4.580   4.101   3.854  0.3142  0.2119 -0.1139
   16POPC  H16X 2142   4.572   3.992   3.832  3.5362 -0.4023  1.2136
   16POPC  H16Y 2143   4.632   4.149   3.769 -0.8863  1.9886  0.1019
   16POPC  H16Z 2144   4.479   4.144   3.868 -0.3075 -1.3874  0.5480
   17POPC     N 2145   4.526   1.553   6.275 -0.0138 -0.8854  0.1087
   17POPC   C12 2146   4.558   1.697   6.330 -0.8244  0.4504 -0.5581
   17POPC  H12A 2147   4.653   1.739   6.302 -0.4504  0.2559  0.3744
   17POPC  H12B 2148   4.555   1.691   6.438 -0.3262 -0.0007 -0.5616
   17POPC   C13 2149   4.383   1.539   6.253 -0.5521 -0.5326  0.1814
   17POPC  H13A 2150   4.344   1.616   6.189  1.9180  1.0318  0.4495
   17POPC  H13B 2151   4.358   1.444   6.208  1.0764 -0.6448 -0.5554
   17POPC  H13C 2152   4.331   1.551   6.347 -0.4222 -0.0907  0.1968
   17POPC   C14 2153   4.578   1.533   6.141 -0.2136 -0.6390 -0.1885
   17POPC  H14A 2154   4.686   1.535   6.143 -0.2030  0.6873  2.7116
   17POPC  H14B 2155   4.541   1.443   6.094  1.3006 -0.8094 -1.1246
   17POPC  H14C 2156   4.542   1.614   6.079 -1.6679 -1.0688  0.0610
   17POPC   C15 2157   4.580   1.450   6.370 -0.7064 -0.6214 -0.6013
   17POPC  H15A 2158   4.554   1.351   6.336 -0.0945 -0.5325 -1.3453
   17POPC  H15B 2159   4.557   1.455   6.475  0.4116 -2.3158 -0.2378
   17POPC  H15C 2160   4.686   1.471   6.371 -1.2717  2.8126 -0.7681
   17POPC   C11 2161   4.452   1.811   6.302 -1.1513 -0.2138 -0.3350
   17POPC  H11A 2162   4.464   1.900   6.367 -1.2229  0.5347 -1.3245
   17POPC  H11B 2163   4.354   1.767   6.329 -0.2780 -1.7687  0.4476
   17POPC     P 2164   4.572   1.918   6.101 -0.2499 -0.2724 -0.2113
   17POPC   O13 2165   4.688   1.830   6.131  0.2985  0.1478 -0.5914
   17POPC   O14 2166   4.580   2.048   6.166 -0.0820 -0.5672 -0.3053
   17POPC   O12 2167   4.447   1.847   6.169 -0.2410 -0.1930 -0.0592
   17POPC   O11 2168   4.544   1.932   5.940 -0.5295 -0.0455  0.8055
   17POPC    C1 2169   4.416   1.957   5.889 -0.3474  0.0283 -0.9027
   17POPC    HA 2170   4.338   1.948   5.967  2.4631 -1.0888  1.9879
   17POPC    HB 2171   4.399   1.880   5.810  1.2532 -1.2831 -0.0205
   17POPC    C2 2172   4.402   2.082   5.805  0.6694 -0.3645  0.1416
   17POPC    HS 2173   4.296   2.086   5.774 -0.2852  1.5045  3.2279
   17POPC   O21 2174   4.496   2.091   5.697  0.3338 -0.0778 -0.6907
   17POPC   C21 2175   4.449   2.054   5.581  0.3016 -0.1100  0.0853
   17POPC   O22 2176   4.334   2.009   5.556 -0.2848 -0.1109  0.8783
   17POPC   C22 2177   4.545   2.105   5.474  0.6476 -0.1508 -0.8127
   17POPC   H2R 2178   4.648   2.079   5.504  0.6993  0.4089 -0.5013
   17POPC   H2S 2179   4.514   2.211   5.472 -0.0435 -0.3277 -0.0990
   17POPC    C3 2180   4.412   2.215   5.889 -0.6017  0.4174 -0.8123
   17POPC    HX 2181   4.511   2.215   5.938 -1.6248  1.4249  1.3659
   17POPC    HY 2182   4.334   2.217   5.968  1.0195  2.0003  0.8248
   17POPC   O31 2183   4.388   2.325   5.805  0.5841  0.2146  0.6094
   17POPC   C31 2184   4.491   2.410   5.792  1.3015 -0.4808 -0.8704
   17POPC   O32 2185   4.602   2.391   5.820 -0.1359 -0.1288 -0.3978
   17POPC   C32 2186   4.436   2.534   5.739  0.8750  0.9336 -0.4524
   17POPC   H2X 2187   4.408   2.590   5.832  0.2959 -0.9182  0.5356
   17POPC   H2Y 2188   4.339   2.517   5.688  1.3870 -2.5892 -0.5067
   17POPC   C23 2189   4.515   2.042   5.335  0.3226  0.1184 -0.1782
   17POPC   H3R 2190   4.409   2.065   5.312  0.1411  1.7370  2.0121
   17POPC   H3S 2191   4.530   1.932   5.335 -0.3968  0.0124  0.3556
   17POPC   C24 2192   4.593   2.104   5.221 -0.1379  0.1101 -0.2796
   17POPC   H4R 2193   4.701   2.096   5.246 -0.4706  1.7966  1.9976
   17POPC   H4S 2194   4.579   2.214   5.208  0.1334  0.3947  1.6183
   17POPC   C25 2195   4.580   2.019   5.098  0.4175  0.4135 -0.8431
   17POPC   H5R 2196   4.602   1.916   5.132 -0.7504  0.1655 -0.8067
   17POPC   H5S 2197   4.659   2.054   5.027  0.8844 -0.9909 -1.0498
   17POPC   C26 2198   4.435   2.014   5.032 -0.3159 -0.5438  0.4442
   17POPC   H6R 2199   4.388   2.113   5.046  2.0022  0.6147  0.4411
   17POPC   H6S 2200   4.379   1.937   5.089 -1.8897  0.8305  0.8416
   17POPC   C27 2201   4.445   1.974   4.878  0.2276 -0.4529  0.0151
   17POPC   H7R 2202   4.510   1.884   4.873  2.7009  1.2947 -2.0562
   17POPC   H7S 2203   4.513   2.046   4.826  1.2834 -2.3351 -1.3117
   17POPC   C28 2204   4.311   1.962   4.813 -0.3120  1.1069  0.5274
   17POPC   H8R 2205   4.326   1.982   4.705 -0.6717  0.1108  0.2813
   17POPC   H8S 2206   4.243   2.041   4.850 -0.6806  0.5896  0.9750
   17POPC   C29 2207   4.256   1.822   4.833 -0.1020  0.0333  0.4829
   17POPC   H91 2208   4.277   1.779   4.932 -2.6251 -1.8896  0.2706
   17POPC  C210 2209   4.200   1.731   4.748  0.1891  0.0871  0.3157
   17POPC  H101 2210   4.180   1.632   4.791  1.1836 -0.8158 -1.1853
   17POPC  C211 2211   4.143   1.753   4.603 -0.6974 -0.1745 -0.0963
   17POPC  H11R 2212   4.166   1.858   4.575  0.5786 -0.0956  1.0924
   17POPC  H11S 2213   4.035   1.731   4.600 -0.8019  0.4560 -1.5301
   17POPC  C212 2214   4.217   1.656   4.506  0.0232 -0.1995 -0.7555
   17POPC  H12R 2215   4.210   1.549   4.537  2.1717 -0.0603  0.4232
   17POPC  H12S 2216   4.326   1.676   4.515 -0.0482 -0.7860  4.0310
   17POPC  C213 2217   4.170   1.668   4.362  0.0828  0.0270 -0.5855
   17POPC  H13R 2218   4.139   1.774   4.345  1.6020  0.2799 -2.1432
   17POPC  H13S 2219   4.080   1.602   4.358  0.0148 -0.3866  3.7682
   17POPC  C214 2220   4.276   1.621   4.256  0.1017  0.6158  0.8250
   17POPC  H14R 2221   4.352   1.698   4.281  1.6698 -1.2474  2.0392
   17POPC  H14S 2222   4.233   1.633   4.154 -1.2005 -0.7338  1.1812
   17POPC  C215 2223   4.335   1.474   4.268  0.1871 -0.5426  0.3707
   17POPC  H15R 2224   4.249   1.407   4.250 -1.0491  1.6792 -2.7689
   17POPC  H15S 2225   4.363   1.454   4.374 -2.4797 -0.3397  1.1822
   17POPC  C216 2226   4.438   1.439   4.163 -0.8374  0.1833  0.4359
   17POPC  H16R 2227   4.530   1.471   4.218 -1.1394  0.6143  0.6953
   17POPC  H16S 2228   4.436   1.509   4.076  2.6046 -1.7921 -1.4315
   17POPC  C217 2229   4.426   1.291   4.116 -0.4741 -0.6203  0.1580
   17POPC  H17R 2230   4.338   1.284   4.049  2.2855 -1.0859 -3.7928
   17POPC  H17S 2231   4.406   1.219   4.199 -0.7815 -0.3187  0.3476
   17POPC  C218 2232   4.544   1.239   4.029 -0.2528  0.5314 -0.3734
   17POPC  H18R 2233   4.628   1.247   4.101  1.0411 -1.2469 -1.5836
   17POPC  H18S 2234   4.558   1.310   3.945  1.0967 -0.3178 -0.9059
   17POPC  H18T 2235   4.525   1.138   3.986 -0.0953  0.1741  0.3764
   17POPC   C33 2236   4.522   2.638   5.660  0.5617 -0.7911 -0.0634
   17POPC   H3X 2237   4.603   2.658   5.734 -1.2518 -0.3507  1.9188
   17POPC   H3Y 2238   4.458   2.727   5.644  0.3918 -0.8632  0.1957
   17POPC   C34 2239   4.580   2.596   5.525  0.3189 -0.4037  0.6574
   17POPC   H4X 2240   4.651   2.511   5.534 -0.6103 -2.0360 -4.3468
   17POPC   H4Y 2241   4.627   2.686   5.480  0.0877 -0.6798 -0.1473
   17POPC   C35 2242   4.474   2.548   5.422 -0.1294 -0.1570 -1.0852
   17POPC   H5X 2243   4.406   2.633   5.396  1.8702  1.8424 -0.0805
   17POPC   H5Y 2244   4.420   2.462   5.466  1.2268  0.0882  1.1912
   17POPC   C36 2245   4.536   2.505   5.290 -0.2905 -0.2071 -0.7516
   17POPC   H6X 2246   4.608   2.423   5.311 -0.4154 -0.0988  0.1774
   17POPC   H6Y 2247   4.595   2.593   5.256 -1.8413  2.3903  2.6008
   17POPC   C37 2248   4.439   2.491   5.178 -0.1086  0.2183 -0.1781
   17POPC   H7X 2249   4.386   2.588   5.161 -0.7402  0.1066  1.0787
   17POPC   H7Y 2250   4.360   2.418   5.202 -0.4517 -0.0923 -2.0479
   17POPC   C38 2251   4.507   2.458   5.045  0.6499 -0.0349  0.1321
   17POPC   H8X 2252   4.581   2.380   5.070  1.9414  1.9268  3.0116
   17POPC   H8Y 2253   4.557   2.553   5.015  0.4373  0.4836  1.3502
   17POPC   C39 2254   4.399   2.412   4.945  0.7110  0.2537  0.0744
   17POPC   H9X 2255   4.322   2.489   4.923 -2.3537 -2.6819 -0.4678
   17POPC   H9Y 2256   4.335   2.329   4.984 -0.1393  0.6697 -0.3887
   17POPC  C310 2257   4.459   2.373   4.811  0.5568 -0.2727 -0.8307
   17POPC  H10X 2258   4.517   2.281   4.833  2.6102  0.7711 -1.6197
   17POPC  H10Y 2259   4.532   2.448   4.773 -0.1067  0.6823 -0.2913
   17POPC  C311 2260   4.354   2.328   4.702  0.6878  0.2550 -0.2505
   17POPC  H11X 2261   4.299   2.419   4.671 -1.3768 -0.9560 -0.3282
   17POPC  H11Y 2262   4.294   2.246   4.747 -1.2118  0.7232 -1.7836
   17POPC  C312 2263   4.416   2.287   4.572  0.6720 -1.1225  0.0037
   17POPC  H12X 2264   4.326   2.258   4.513  0.1944  1.0457 -0.4189
   17POPC  H12Y 2265   4.491   2.208   4.593  0.5459 -1.0773  0.6591
   17POPC  C313 2266   4.486   2.399   4.494 -0.2008  0.0228  0.2656
   17POPC  H13X 2267   4.591   2.413   4.530 -0.1061  0.4288 -0.1552
   17POPC  H13Y 2268   4.439   2.499   4.503 -2.5600 -0.9816 -0.1528
   17POPC  C314 2269   4.491   2.363   4.346  0.2151 -0.2484  0.4824
   17POPC  H14X 2270   4.389   2.379   4.305  0.3006 -1.7054 -0.3930
   17POPC  H14Y 2271   4.493   2.255   4.322  0.1099  0.0318 -0.8713
   17POPC  C315 2272   4.597   2.442   4.266 -0.4023  0.2183  0.5622
   17POPC  H15X 2273   4.697   2.425   4.310  0.3629 -0.7921 -1.4727
   17POPC  H15Y 2274   4.578   2.552   4.271 -0.9457  0.1885 -0.5082
   17POPC  C316 2275   4.610   2.396   4.121  0.4450 -0.3596 -0.5468
   17POPC  H16X 2276   4.598   2.286   4.116  0.6963 -0.5516  2.0257
   17POPC  H16Y 2277   4.700   2.435   4.070  0.4469  2.4091  1.3652
   17POPC  H16Z 2278   4.522   2.433   4.064 -0.6400 -1.5354  0.3057
   18POPC     N 2279   5.499   3.476   6.226 -0.8033 -0.3505 -0.4464
   18POPC   C12 2280   5.587   3.420   6.110  0.5623 -0.8132 -0.1813
   18POPC  H12A 2281   5.554   3.321   6.081 -1.2225  0.4121 -2.7430
   18POPC  H12B 2282   5.685   3.402   6.152 -0.0700 -1.7300  0.9927
   18POPC   C13 2283   5.369   3.526   6.169  0.8234  0.2439 -0.5128
   18POPC  H13A 2284   5.386   3.592   6.085  1.4260  2.0019  0.9293
   18POPC  H13B 2285   5.303   3.444   6.141  0.0887  0.3305  0.8404
   18POPC  H13C 2286   5.318   3.588   6.242  1.8009  0.5986 -0.1171
   18POPC   C14 2287   5.493   3.381   6.340 -0.4779  0.1684 -0.1750
   18POPC  H14A 2288   5.437   3.293   6.312 -1.0043  0.2421  0.6387
   18POPC  H14B 2289   5.592   3.347   6.369 -0.5051 -0.7327 -1.0675
   18POPC  H14C 2290   5.438   3.428   6.420 -1.5294 -1.1865 -0.0705
   18POPC   C15 2291   5.577   3.600   6.278  0.3411  0.8227  0.0174
   18POPC  H15A 2292   5.601   3.670   6.200 -2.2682  2.0245  0.2075
   18POPC  H15B 2293   5.661   3.567   6.337 -1.0762 -1.8154  0.7098
   18POPC  H15C 2294   5.509   3.647   6.347  1.8343 -0.0036  2.1695
   18POPC   C11 2295   5.617   3.501   5.980 -0.1340 -0.4134  0.0472
   18POPC  H11A 2296   5.519   3.536   5.940 -0.6636 -0.3706  1.3374
   18POPC  H11B 2297   5.663   3.435   5.904  0.9255  2.0521 -1.6103
   18POPC     P 2298   5.842   3.636   5.983  0.3620  0.2386  0.0102
   18POPC   O13 2299   5.917   3.540   6.065 -0.2859 -0.6365 -0.3495
   18POPC   O14 2300   5.864   3.782   6.000 -0.5062  0.3326 -0.2951
   18POPC   O12 2301   5.689   3.615   6.016 -0.5572 -0.4346  0.1263
   18POPC   O11 2302   5.846   3.598   5.823  0.1138 -0.3267 -0.1636
   18POPC    C1 2303   5.765   3.676   5.735 -0.3451  0.1823  0.0443
   18POPC    HA 2304   5.750   3.780   5.771 -3.6344  1.0955 -3.2987
   18POPC    HB 2305   5.664   3.630   5.723 -0.1752 -0.9833  2.4203
   18POPC    C2 2306   5.840   3.677   5.597 -0.1941 -0.2941 -0.2511
   18POPC    HS 2307   5.786   3.750   5.533 -0.7173  0.5036  1.0492
   18POPC   O21 2308   5.861   3.545   5.540 -0.1005 -0.0475 -0.1217
   18POPC   C21 2309   5.767   3.498   5.465  0.3067  0.5214 -0.0037
   18POPC   O22 2310   5.662   3.554   5.436 -0.9286  0.0641 -0.4689
   18POPC   C22 2311   5.823   3.372   5.410  0.2257  0.0841  0.2822
   18POPC   H2R 2312   5.845   3.308   5.498  1.6549  1.9103  1.3320
   18POPC   H2S 2313   5.921   3.373   5.357  1.5758 -3.2486  2.4279
   18POPC    C3 2314   5.984   3.746   5.607  0.0284  0.7046  0.2077
   18POPC    HX 2315   6.050   3.679   5.666  2.7168  1.2122 -2.0221
   18POPC    HY 2316   5.978   3.837   5.670 -2.4549 -0.3135  1.6114
   18POPC   O31 2317   6.037   3.777   5.479 -0.2533 -0.9263  0.0440
   18POPC   C31 2318   6.177   3.775   5.469 -0.0052  0.0041  1.0544
   18POPC   O32 2319   6.251   3.770   5.564  0.0073 -0.6914 -0.1977
   18POPC   C32 2320   6.212   3.762   5.320 -0.0957  0.2282 -0.6819
   18POPC   H2X 2321   6.136   3.796   5.247 -1.6170 -1.9495 -0.2118
   18POPC   H2Y 2322   6.216   3.654   5.293  1.6132  0.1357 -0.2038
   18POPC   C23 2323   5.731   3.298   5.307  0.5644  0.2173  0.0456
   18POPC   H3R 2324   5.728   3.346   5.207  0.5438  0.4544  0.1605
   18POPC   H3S 2325   5.630   3.294   5.352  0.1942 -1.4957 -0.8539
   18POPC   C24 2326   5.760   3.147   5.285 -0.2340 -0.6647  0.5825
   18POPC   H4R 2327   5.672   3.107   5.232  0.8922 -1.9287 -0.4076
   18POPC   H4S 2328   5.767   3.094   5.383 -2.7352 -1.6869  0.2867
   18POPC   C25 2329   5.881   3.116   5.193 -0.0414 -0.1906  0.1850
   18POPC   H5R 2330   5.970   3.167   5.237 -0.6873  1.1469 -0.0067
   18POPC   H5S 2331   5.866   3.167   5.096 -0.0191  1.2749  0.9134
   18POPC   C26 2332   5.902   2.968   5.169  0.7363 -0.9503  0.4021
   18POPC   H6R 2333   5.804   2.925   5.140 -0.4558  0.8146  1.5932
   18POPC   H6S 2334   5.941   2.923   5.263 -0.3906 -0.4610  1.1285
   18POPC   C27 2335   6.013   2.935   5.066 -0.4814 -0.7845  0.0840
   18POPC   H7R 2336   6.038   2.828   5.084  0.6140 -0.5693 -0.1139
   18POPC   H7S 2337   6.095   3.008   5.082 -0.4341 -0.7833 -0.1642
   18POPC   C28 2338   5.960   2.953   4.919  0.7379 -0.1009 -0.5967
   18POPC   H8R 2339   6.044   2.928   4.850  2.4184  2.0659  0.5437
   18POPC   H8S 2340   5.925   3.056   4.896 -1.1945 -1.0941 -2.3960
   18POPC   C29 2341   5.839   2.862   4.894 -0.3104 -0.1734 -0.3005
   18POPC   H91 2342   5.794   2.807   4.977 -0.4478  0.1132 -0.1838
   18POPC  C210 2343   5.782   2.866   4.770  0.2130 -0.6201  0.3225
   18POPC  H101 2344   5.679   2.826   4.765 -0.2211  0.4422  0.4229
   18POPC  C211 2345   5.831   2.936   4.640 -0.0307 -0.3057  0.9386
   18POPC  H11R 2346   5.920   3.001   4.651 -0.6931  0.3845  2.6006
   18POPC  H11S 2347   5.751   3.002   4.601  1.3257 -1.0723 -3.7309
   18POPC  C212 2348   5.865   2.834   4.527 -0.0382 -0.1003 -0.4946
   18POPC  H12R 2349   5.950   2.769   4.555  0.3533  0.2547 -0.8414
   18POPC  H12S 2350   5.885   2.894   4.436 -0.7996  0.7570 -0.1176
   18POPC  C213 2351   5.743   2.758   4.480 -0.4448 -0.0610 -0.0765
   18POPC  H13R 2352   5.664   2.836   4.467 -0.4387  0.0892  0.7151
   18POPC  H13S 2353   5.731   2.696   4.571  0.2099  2.5897  1.9722
   18POPC  C214 2354   5.762   2.671   4.357 -0.2452 -0.4038  0.8116
   18POPC  H14R 2355   5.659   2.645   4.324  0.1037 -1.4126  0.4836
   18POPC  H14S 2356   5.822   2.585   4.392  0.5682  0.9537  2.9938
   18POPC  C215 2357   5.829   2.743   4.243 -0.0061  0.3462  0.5025
   18POPC  H15R 2358   5.939   2.748   4.258  0.5161 -0.5006 -2.3659
   18POPC  H15S 2359   5.794   2.848   4.239 -1.7282 -0.2299 -1.1472
   18POPC  C216 2360   5.794   2.677   4.111 -0.4572 -0.2749  0.1334
   18POPC  H16R 2361   5.685   2.679   4.088  0.0604 -2.5077 -3.2758
   18POPC  H16S 2362   5.825   2.571   4.118  0.8346  0.0546 -0.2742
   18POPC  C217 2363   5.865   2.736   3.994  0.9762 -0.1573  0.0370
   18POPC  H17R 2364   5.957   2.784   4.033 -0.4270  1.8268  1.0645
   18POPC  H17S 2365   5.810   2.817   3.941 -0.7047 -0.9142  0.5530
   18POPC  C218 2366   5.905   2.630   3.891 -0.9998 -0.3652  0.3702
   18POPC  H18R 2367   5.977   2.671   3.817 -0.4283 -1.4407  0.3010
   18POPC  H18S 2368   5.815   2.598   3.835 -1.0267  0.8984 -0.3335
   18POPC  H18T 2369   5.951   2.539   3.936 -0.1959  0.1285  0.5797
   18POPC   C33 2370   6.358   3.807   5.277  0.7152 -0.2987 -0.0755
   18POPC   H3X 2371   6.440   3.769   5.341  2.2285  0.0236 -1.7287
   18POPC   H3Y 2372   6.365   3.918   5.264  1.9557 -0.0610  2.1577
   18POPC   C34 2373   6.386   3.740   5.145  0.3080  0.3523  0.1059
   18POPC   H4X 2374   6.369   3.630   5.146  0.8714  0.2618 -0.0352
   18POPC   H4Y 2375   6.493   3.754   5.119 -0.3631  1.3202 -2.5133
   18POPC   C35 2376   6.314   3.798   5.018 -0.8219  0.0740 -0.5685
   18POPC   H5X 2377   6.319   3.908   5.030 -2.0495  0.0152  0.6405
   18POPC   H5Y 2378   6.207   3.769   5.010 -1.7298  2.7303  0.9978
   18POPC   C36 2379   6.387   3.761   4.883 -0.4337 -0.0153  0.1276
   18POPC   H6X 2380   6.414   3.654   4.874  0.7117  0.1816  0.9103
   18POPC   H6Y 2381   6.473   3.832   4.881 -0.8720  0.6558  2.2087
   18POPC   C37 2382   6.313   3.795   4.750 -0.0448 -0.2647 -0.1553
   18POPC   H7X 2383   6.298   3.905   4.748  0.8427  0.0138  2.9311
   18POPC   H7Y 2384   6.218   3.739   4.761 -0.5308  0.3743 -0.9956
   18POPC   C38 2385   6.397   3.756   4.623 -0.0400 -0.1410 -0.3000
   18POPC   H8X 2386   6.343   3.668   4.582  1.2161 -0.7057 -0.7837
   18POPC   H8Y 2387   6.490   3.709   4.661  0.4147  2.2688  1.8278
   18POPC   C39 2388   6.413   3.861   4.515  0.2172  0.2470  0.3940
   18POPC   H9X 2389   6.453   3.801   4.430  0.1590  0.6621  0.0707
   18POPC   H9Y 2390   6.492   3.934   4.540 -1.7331  2.1237  1.4147
   18POPC  C310 2391   6.277   3.917   4.464  0.0541 -0.0285 -0.3052
   18POPC  H10X 2392   6.208   3.947   4.545  0.1238  0.1728 -0.3214
   18POPC  H10Y 2393   6.222   3.849   4.396 -0.2257 -0.4364  0.3212
   18POPC  C311 2394   6.282   4.049   4.373 -0.2344 -0.1590  0.6319
   18POPC  H11X 2395   6.330   4.017   4.278  0.1045 -1.3445  1.1843
   18POPC  H11Y 2396   6.354   4.121   4.418  2.2631 -1.5364 -0.9238
   18POPC  C312 2397   6.142   4.109   4.349 -0.8419 -0.3442  0.1985
   18POPC  H12X 2398   6.096   4.124   4.449  2.3680  0.4891  1.6872
   18POPC  H12Y 2399   6.087   4.021   4.309  1.6880 -2.3687  0.9107
   18POPC  C313 2400   6.131   4.239   4.266 -0.2155  0.2276  0.2562
   18POPC  H13X 2401   6.181   4.224   4.169  3.0306 -0.4188  1.8905
   18POPC  H13Y 2402   6.195   4.313   4.319  0.5624 -0.4923  0.3459
   18POPC  C314 2403   5.985   4.277   4.262  0.4332  0.5692  0.2228
   18POPC  H14X 2404   5.966   4.317   4.364 -0.4832 -1.5828  0.9713
   18POPC  H14Y 2405   5.926   4.182   4.265  0.7967  0.3113 -0.4536
   18POPC  C315 2406   5.945   4.369   4.153 -0.4360  0.0988  0.2026
   18POPC  H15X 2407   5.968   4.316   4.058 -3.1451  0.5870 -0.8297
   18POPC  H15Y 2408   6.012   4.457   4.159  0.2803 -0.4232  0.0016
   18POPC  C316 2409   5.803   4.409   4.155  0.8149  0.0102 -0.3806
   18POPC  H16X 2410   5.750   4.342   4.226  0.6169  0.3633 -0.1981
   18POPC  H16Y 2411   5.765   4.395   4.051  2.6824 -1.3894 -0.9360
   18POPC  H16Z 2412   5.784   4.514   4.183  0.5006 -0.3096  0.6379
   19POPC     N 2413   3.258   3.295   6.224  0.1665 -0.4525  0.2906
   19POPC   C12 2414   3.318   3.176   6.152  0.5472 -0.6546 -0.3486
   19POPC  H12A 2415   3.395   3.222   6.091 -0.4579 -1.1213 -2.0236
   19POPC  H12B 2416   3.246   3.134   6.084 -1.1897  0.2067  0.8649
   19POPC   C13 2417   3.341   3.324   6.350  0.4473 -0.4440 -0.4618
   19POPC  H13A 2418   3.368   3.230   6.394 -1.6109 -0.4837  0.8370
   19POPC  H13B 2419   3.436   3.375   6.334 -0.6366  2.5076  1.5586
   19POPC  H13C 2420   3.285   3.375   6.426  0.4564 -0.7400 -0.2548
   19POPC   C14 2421   3.252   3.415   6.137  0.6659 -0.2094 -0.1328
   19POPC  H14A 2422   3.197   3.491   6.189  2.1653  0.7340  0.1530
   19POPC  H14B 2423   3.346   3.453   6.100  0.7942 -1.3720 -1.0719
   19POPC  H14C 2424   3.198   3.396   6.046  0.0515  0.7780  0.0132
   19POPC   C15 2425   3.118   3.260   6.260  0.0426  0.2316  0.5609
   19POPC  H15A 2426   3.116   3.166   6.313  0.7656 -0.0914  0.0421
   19POPC  H15B 2427   3.055   3.233   6.176 -0.6596 -0.2227  1.2239
   19POPC  H15C 2428   3.076   3.336   6.323  0.5068 -0.3649  1.6156
   19POPC   C11 2429   3.371   3.059   6.237  0.0322  0.1908 -0.3093
   19POPC  H11A 2430   3.447   3.089   6.312  0.8848 -0.5500 -0.8545
   19POPC  H11B 2431   3.416   2.992   6.161  1.4734 -2.7729  2.8824
   19POPC     P 2432   3.177   2.885   6.269 -0.0130 -0.1725  0.2518
   19POPC   O13 2433   3.048   2.897   6.334 -0.1192 -0.6045 -0.5374
   19POPC   O14 2434   3.248   2.756   6.285 -0.0950  0.0181  0.2469
   19POPC   O12 2435   3.268   3.002   6.315 -0.4032  0.1274  0.4107
   19POPC   O11 2436   3.154   2.920   6.121 -0.0278  0.4919  0.4919
   19POPC    C1 2437   3.116   2.828   6.019 -0.0067  0.0064 -0.2046
   19POPC    HA 2438   3.083   2.880   5.926  1.3787  0.2894 -0.5528
   19POPC    HB 2439   3.029   2.765   6.048 -1.0349  1.8000  0.8498
   19POPC    C2 2440   3.240   2.742   5.969  0.9693 -0.5951 -0.1077
   19POPC    HS 2441   3.291   2.704   6.061 -0.8661 -1.9997  0.3847
   19POPC   O21 2442   3.328   2.808   5.878  0.1295 -0.0562 -0.0717
   19POPC   C21 2443   3.445   2.751   5.868  0.4934  0.6439 -0.6819
   19POPC   O22 2444   3.477   2.647   5.920  0.2973 -0.5599  0.0334
   19POPC   C22 2445   3.539   2.828   5.772 -0.5912  0.3638  0.0995
   19POPC   H2R 2446   3.609   2.877   5.842 -3.1923  1.5220  2.0773
   19POPC   H2S 2447   3.487   2.911   5.718  1.3649  2.5627  1.4105
   19POPC    C3 2448   3.166   2.622   5.898 -0.5596  0.4442  0.2323
   19POPC    HX 2449   3.092   2.571   5.964  1.6664 -0.4194  2.2046
   19POPC    HY 2450   3.241   2.542   5.883 -1.1381 -0.4217  1.6825
   19POPC   O31 2451   3.116   2.661   5.771 -0.4042  0.4417  0.8866
   19POPC   C31 2452   2.986   2.662   5.766  0.0340  0.8857 -0.2441
   19POPC   O32 2453   2.906   2.641   5.857 -0.3113 -0.5042  0.4822
   19POPC   C32 2454   2.938   2.680   5.619  0.0844  0.1852 -0.1854
   19POPC   H2X 2455   2.997   2.604   5.564 -0.6130 -0.9719  0.5952
   19POPC   H2Y 2456   2.977   2.779   5.588  2.7505 -0.7084  0.1068
   19POPC   C23 2457   3.623   2.741   5.674 -0.4063  0.4525  0.7996
   19POPC   H3R 2458   3.672   2.658   5.730  1.0919  1.9713  1.8472
   19POPC   H3S 2459   3.708   2.805   5.642 -0.2490 -0.7928 -1.5446
   19POPC   C24 2460   3.537   2.684   5.566 -0.0248  0.3467  0.3068
   19POPC   H4R 2461   3.473   2.762   5.522 -1.5290 -2.0529 -2.0581
   19POPC   H4S 2462   3.468   2.602   5.595  1.2796 -0.4234  1.3659
   19POPC   C25 2463   3.621   2.617   5.454  0.3762  0.8624  0.5384
   19POPC   H5R 2464   3.706   2.562   5.501  0.2375  1.8133  1.9721
   19POPC   H5S 2465   3.658   2.706   5.398 -2.4559  0.2117 -2.6545
   19POPC   C26 2466   3.533   2.524   5.365 -0.3132 -0.0462  0.4943
   19POPC   H6R 2467   3.450   2.585   5.324  1.2829  1.9864  0.1472
   19POPC   H6S 2468   3.490   2.437   5.420 -0.5796 -0.1420  0.1426
   19POPC   C27 2469   3.619   2.465   5.239  0.3783 -0.1118 -0.1810
   19POPC   H7R 2470   3.565   2.392   5.175  1.1778 -0.4975 -0.4291
   19POPC   H7S 2471   3.708   2.418   5.284  1.3060  1.5716 -0.1763
   19POPC   C28 2472   3.661   2.567   5.127  0.5268  0.0957  0.4780
   19POPC   H8R 2473   3.733   2.521   5.056 -2.2232 -1.9256 -1.1678
   19POPC   H8S 2474   3.706   2.665   5.156  0.2792  1.2484 -2.6116
   19POPC   C29 2475   3.529   2.608   5.051  0.3674  0.5198  0.3558
   19POPC   H91 2476   3.479   2.684   5.112 -0.4715  1.6897 -1.7042
   19POPC  C210 2477   3.473   2.564   4.937 -0.1608 -0.4811  0.0977
   19POPC  H101 2478   3.371   2.587   4.903 -0.0039 -0.1002 -0.1269
   19POPC  C211 2479   3.535   2.471   4.827  0.6418  0.2507 -0.7564
   19POPC  H11R 2480   3.482   2.374   4.815  1.4717 -0.5441  1.5272
   19POPC  H11S 2481   3.632   2.438   4.870 -0.4046  1.5565  2.9062
   19POPC  C212 2482   3.557   2.528   4.689  0.3173  0.5735  0.3198
   19POPC  H12R 2483   3.623   2.457   4.634 -0.9751  1.7021 -2.8792
   19POPC  H12S 2484   3.618   2.621   4.691 -1.3557  1.7202  2.8280
   19POPC  C213 2485   3.422   2.543   4.628 -0.1293  0.0428 -0.3302
   19POPC  H13R 2486   3.365   2.621   4.683 -1.1241  0.5837 -2.0642
   19POPC  H13S 2487   3.357   2.453   4.639  1.2377 -1.0257 -0.6723
   19POPC  C214 2488   3.437   2.578   4.483 -0.1715  0.4274  0.2443
   19POPC  H14R 2489   3.465   2.484   4.431  0.9338  1.5815 -1.3540
   19POPC  H14S 2490   3.517   2.654   4.469  2.7104 -2.7598 -2.0852
   19POPC  C215 2491   3.302   2.625   4.422  1.5855 -0.0776 -0.6043
   19POPC  H15R 2492   3.242   2.676   4.500 -0.3229  1.0006 -2.6301
   19POPC  H15S 2493   3.250   2.536   4.382 -1.0035  1.1600 -0.1782
   19POPC  C216 2494   3.310   2.720   4.303  0.3829  0.5718 -0.7530
   19POPC  H16R 2495   3.359   2.675   4.214  1.5573  1.7540 -0.7352
   19POPC  H16S 2496   3.366   2.811   4.333  0.2648  0.1296  0.9444
   19POPC  C217 2497   3.166   2.782   4.264 -0.0963 -0.0080 -0.0401
   19POPC  H17R 2498   3.132   2.849   4.346  1.6854  1.4583 -0.4212
   19POPC  H17S 2499   3.105   2.690   4.254  1.2602 -0.7956 -1.5504
   19POPC  C218 2500   3.168   2.868   4.144 -0.0123 -0.7410  0.0351
   19POPC  H18R 2501   3.069   2.912   4.120  0.7549  1.0519  0.0624
   19POPC  H18S 2502   3.216   2.818   4.058  1.6334  0.8105 -0.0043
   19POPC  H18T 2503   3.228   2.960   4.158  0.0282 -0.8545  0.6405
   19POPC   C33 2504   2.787   2.681   5.597  1.2004 -0.0841 -0.2335
   19POPC   H3X 2505   2.738   2.764   5.652  0.5589 -0.1228 -0.7339
   19POPC   H3Y 2506   2.738   2.587   5.630  0.6674  1.1159  2.6061
   19POPC   C34 2507   2.764   2.692   5.447 -0.4052 -0.8711  0.2773
   19POPC   H4X 2508   2.805   2.776   5.387  2.7622 -3.3412 -1.3269
   19POPC   H4Y 2509   2.656   2.720   5.446  0.0554  1.5135  2.8322
   19POPC   C35 2510   2.796   2.565   5.366  0.1320 -0.0534 -0.6272
   19POPC   H5X 2511   2.742   2.487   5.424 -0.3518 -0.4960 -1.6354
   19POPC   H5Y 2512   2.905   2.558   5.352  0.5137  2.6143  0.3148
   19POPC   C36 2513   2.737   2.574   5.225 -0.2583  0.5980  1.0976
   19POPC   H6X 2514   2.785   2.652   5.162  1.0860  1.0738  2.6392
   19POPC   H6Y 2515   2.632   2.609   5.234 -0.1998  0.9461  0.4507
   19POPC   C37 2516   2.721   2.437   5.152  0.5063 -0.6665 -0.1301
   19POPC   H7X 2517   2.666   2.379   5.229 -0.9733  0.3706 -0.3524
   19POPC   H7Y 2518   2.825   2.407   5.128  1.6985  2.3817  0.7967
   19POPC   C38 2519   2.641   2.451   5.018  0.3452  0.6228  0.1078
   19POPC   H8X 2520   2.700   2.520   4.954 -1.6619  2.1487 -0.1878
   19POPC   H8Y 2521   2.544   2.502   5.034 -0.3810 -1.0905  1.4711
   19POPC   C39 2522   2.603   2.317   4.952  0.1886  0.3545  0.8370
   19POPC   H9X 2523   2.524   2.261   5.007 -0.1798 -0.6097 -0.6086
   19POPC   H9Y 2524   2.700   2.266   4.935  0.3563  0.1965  2.1490
   19POPC  C310 2525   2.536   2.347   4.816  0.0847  0.3554 -0.1603
   19POPC  H10X 2526   2.606   2.392   4.742 -0.8970  0.8499 -0.8146
   19POPC  H10Y 2527   2.443   2.407   4.831 -0.5738 -0.8414  0.7544
   19POPC  C311 2528   2.481   2.220   4.738 -0.1734 -0.2113 -0.2104
   19POPC  H11X 2529   2.387   2.177   4.780  1.1211 -1.8693  1.1594
   19POPC  H11Y 2530   2.560   2.144   4.753 -0.2944 -0.6027 -1.4380
   19POPC  C312 2531   2.470   2.251   4.590 -0.1204 -0.1744 -0.4045
   19POPC  H12X 2532   2.568   2.282   4.548 -0.6817 -1.0972 -2.5769
   19POPC  H12Y 2533   2.392   2.329   4.577  1.1174  0.7617 -2.8085
   19POPC  C313 2534   2.414   2.133   4.505 -0.2176 -0.1487  0.3135
   19POPC  H13X 2535   2.339   2.080   4.567  0.2201 -1.1663 -0.0043
   19POPC  H13Y 2536   2.489   2.054   4.480 -1.7501 -1.0363 -1.7605
   19POPC  C314 2537   2.345   2.182   4.379  0.3043  0.2446  0.6859
   19POPC  H14X 2538   2.409   2.246   4.315  0.0039  1.3678  1.4556
   19POPC  H14Y 2539   2.253   2.239   4.406 -0.5460 -0.8988  0.2875
   19POPC  C315 2540   2.304   2.069   4.286 -0.1382  0.0375 -0.1245
   19POPC  H15X 2541   2.254   1.998   4.355 -0.9227  2.0073  1.4319
   19POPC  H15Y 2542   2.378   2.002   4.237 -0.9678 -1.6128  0.7576
   19POPC  C316 2543   2.206   2.125   4.180  0.3611 -0.5283  0.3378
   19POPC  H16X 2544   2.269   2.183   4.108 -0.1672 -0.4593 -0.0706
   19POPC  H16Y 2545   2.137   2.197   4.227  0.1399 -0.8099  0.4466
   19POPC  H16Z 2546   2.159   2.037   4.132  2.1912 -2.2033  1.4534
   20POPC     N 2547   3.908   6.252   6.305 -0.3664  0.2112  0.2189
   20POPC   C12 2548   3.918   6.263   6.154  0.9726  0.5561 -0.4767
   20POPC  H12A 2549   3.953   6.170   6.112  0.2383 -0.0876  0.3013
   20POPC  H12B 2550   3.989   6.339   6.127 -0.9833  3.9846  3.0449
   20POPC   C13 2551   3.822   6.146   6.342 -0.6714  0.2417  0.2375
   20POPC  H13A 2552   3.727   6.159   6.293 -0.7278 -1.8344 -0.2709
   20POPC  H13B 2553   3.850   6.047   6.309  1.3919  0.0078  2.3761
   20POPC  H13C 2554   3.806   6.137   6.449  2.7185 -0.1016  0.8296
   20POPC   C14 2555   4.050   6.223   6.353 -0.0642  0.0531  0.0826
   20POPC  H14A 2556   4.063   6.221   6.461  2.5159 -1.2322 -0.1849
   20POPC  H14B 2557   4.081   6.129   6.311 -0.2173 -0.3885  0.9276
   20POPC  H14C 2558   4.124   6.298   6.331 -0.0999  0.9207  2.5630
   20POPC   C15 2559   3.856   6.384   6.370  0.0219 -0.4673 -0.5798
   20POPC  H15A 2560   3.920   6.467   6.345  2.7124 -1.5453  2.0918
   20POPC  H15B 2561   3.868   6.385   6.477  2.7737  0.6917 -0.8029
   20POPC  H15C 2562   3.757   6.406   6.333 -0.2418 -1.3218 -0.3941
   20POPC   C11 2563   3.786   6.305   6.073  0.4275  0.1802  0.3862
   20POPC  H11A 2564   3.815   6.301   5.966 -2.2776 -1.2125 -0.3997
   20POPC  H11B 2565   3.763   6.411   6.094  1.9134  0.3078  1.4656
   20POPC     P 2566   3.540   6.234   6.034  0.1866 -0.0111 -0.0064
   20POPC   O13 2567   3.472   6.349   6.097  0.1077 -0.2845 -0.7739
   20POPC   O14 2568   3.477   6.105   6.042  0.4918  0.5184 -0.0290
   20POPC   O12 2569   3.679   6.221   6.094 -0.0797  0.5156  0.4144
   20POPC   O11 2570   3.571   6.265   5.884  0.0663 -0.2307  0.4478
   20POPC    C1 2571   3.664   6.200   5.795  0.0304 -0.1489 -0.5998
   20POPC    HA 2572   3.718   6.112   5.836 -1.3913 -0.6511  0.2586
   20POPC    HB 2573   3.744   6.273   5.767  1.0925 -0.7764  0.6838
   20POPC    C2 2574   3.597   6.156   5.665  0.7584 -0.5187  0.9402
   20POPC    HS 2575   3.676   6.100   5.611  2.2463  2.4443 -0.1923
   20POPC   O21 2576   3.570   6.280   5.595 -0.2333  0.4713 -0.1338
   20POPC   C21 2577   3.577   6.269   5.457  0.1424 -0.6510  0.6868
   20POPC   O22 2578   3.634   6.180   5.405 -0.3827  0.6511 -0.3298
   20POPC   C22 2579   3.502   6.386   5.378  0.7241 -0.5559  1.0364
   20POPC   H2R 2580   3.561   6.480   5.382 -1.4670  0.8945  1.1292
   20POPC   H2S 2581   3.408   6.405   5.435 -0.3780 -1.5318 -0.3671
   20POPC    C3 2582   3.467   6.057   5.659  0.0833  0.3456 -0.3378
   20POPC    HX 2583   3.407   6.082   5.749  0.3764 -0.6165  0.1325
   20POPC    HY 2584   3.506   5.954   5.667  2.2062  0.5932 -4.6024
   20POPC   O31 2585   3.398   6.074   5.535  0.1047  0.1817  1.0145
   20POPC   C31 2586   3.262   6.055   5.533  0.7734  0.1652  0.1228
   20POPC   O32 2587   3.195   6.009   5.623 -0.2893 -0.0708  0.0131
   20POPC   C32 2588   3.200   6.094   5.398 -0.5751  0.0919 -0.3899
   20POPC   H2X 2589   3.256   6.181   5.359 -0.8760  1.3913  1.8857
   20POPC   H2Y 2590   3.095   6.126   5.418 -0.8385 -1.3952  0.8414
   20POPC   C23 2591   3.461   6.341   5.236  0.7039 -0.0080 -0.5985
   20POPC   H3R 2592   3.368   6.401   5.220  0.8722  0.6420  0.7145
   20POPC   H3S 2593   3.438   6.233   5.227  1.4819 -0.1162 -1.4961
   20POPC   C24 2594   3.572   6.376   5.142  0.4312 -0.0426  0.5236
   20POPC   H4R 2595   3.669   6.334   5.176  0.1012 -1.2253  0.0892
   20POPC   H4S 2596   3.583   6.486   5.141 -0.1546  0.0193  0.3082
   20POPC   C25 2597   3.544   6.325   4.999  0.2336  0.0927  0.1292
   20POPC   H5R 2598   3.438   6.356   4.988 -0.6378 -1.0035  3.8640
   20POPC   H5S 2599   3.540   6.214   5.004  0.8513  0.0717  0.1645
   20POPC   C26 2600   3.649   6.378   4.904  0.4679 -0.0513  0.2652
   20POPC   H6R 2601   3.752   6.358   4.941  0.2391 -1.6402  0.1424
   20POPC   H6S 2602   3.641   6.489   4.904 -0.9929 -0.1308 -0.7698
   20POPC   C27 2603   3.627   6.319   4.765 -0.3357  0.2528 -0.0042
   20POPC   H7R 2604   3.626   6.208   4.774  0.9127  0.2196 -0.1437
   20POPC   H7S 2605   3.694   6.357   4.685 -0.1853 -0.2571 -0.1231
   20POPC   C28 2606   3.484   6.365   4.714  0.3564  0.2874  0.2089
   20POPC   H8R 2607   3.490   6.476   4.713 -1.7782  0.4736 -1.2526
   20POPC   H8S 2608   3.403   6.350   4.788 -0.7179  2.2969 -0.4694
   20POPC   C29 2609   3.442   6.314   4.579  0.2637  0.1721  0.2192
   20POPC   H91 2610   3.485   6.371   4.495  0.7577  0.7091  0.8298
   20POPC  C210 2611   3.333   6.240   4.554  0.2332 -0.7513 -0.6450
   20POPC  H101 2612   3.317   6.219   4.447  0.4824  1.1752 -1.0874
   20POPC  C211 2613   3.236   6.183   4.656 -0.2305  0.2842  0.1435
   20POPC  H11R 2614   3.276   6.164   4.758 -0.9938 -2.5406  0.0086
   20POPC  H11S 2615   3.215   6.081   4.618  2.5055  0.7458 -3.0273
   20POPC  C212 2616   3.105   6.264   4.675 -0.0735  0.6074 -0.4178
   20POPC  H12R 2617   3.124   6.367   4.712  2.1697  0.1036 -0.0318
   20POPC  H12S 2618   3.055   6.213   4.759 -0.5075 -2.6525 -2.5026
   20POPC  C213 2619   3.029   6.260   4.538  0.0231 -0.3523  0.3363
   20POPC  H13R 2620   3.015   6.155   4.506  3.1420 -0.8110  0.1610
   20POPC  H13S 2621   3.094   6.319   4.469 -1.2198 -1.4620 -1.8746
   20POPC  C214 2622   2.901   6.343   4.558  0.1058  0.4927  0.0752
   20POPC  H14R 2623   2.922   6.448   4.586  0.6617  0.3030  0.3888
   20POPC  H14S 2624   2.835   6.297   4.636 -3.1168 -0.0203 -2.7014
   20POPC  C215 2625   2.811   6.361   4.435 -0.2387 -0.1209 -0.9319
   20POPC  H15R 2626   2.725   6.423   4.469  0.2207 -1.0247  2.1963
   20POPC  H15S 2627   2.772   6.260   4.407  2.0926 -0.9824 -1.2944
   20POPC  C216 2628   2.875   6.432   4.314 -0.5884  0.3272 -0.1920
   20POPC  H16R 2629   2.795   6.436   4.238  0.3564 -0.7390 -1.2819
   20POPC  H16S 2630   2.948   6.361   4.269 -0.9595  0.6388 -1.3071
   20POPC  C217 2631   2.931   6.569   4.340  0.8487  0.2281 -0.1409
   20POPC  H17R 2632   3.011   6.577   4.418 -0.7210  0.6068  1.4892
   20POPC  H17S 2633   2.846   6.630   4.376  0.2391 -1.8810  2.2975
   20POPC  C218 2634   2.984   6.630   4.212  0.9306 -0.2887  0.1382
   20POPC  H18R 2635   2.967   6.740   4.214  0.4243 -0.3681  0.1245
   20POPC  H18S 2636   2.923   6.586   4.131  0.1243 -1.4433  1.3204
   20POPC  H18T 2637   3.095   6.621   4.201  1.2402  2.6223  0.0976
   20POPC   C33 2638   3.207   5.975   5.298 -0.4918  0.5236 -0.0345
   20POPC   H3X 2639   3.178   5.879   5.345 -2.1675  0.9327 -0.1577
   20POPC   H3Y 2640   3.308   5.962   5.253 -0.1025  2.1291  0.3123
   20POPC   C34 2641   3.115   6.008   5.179  0.9456 -0.1505 -0.2607
   20POPC   H4X 2642   3.150   6.098   5.124 -0.7215  1.7358  1.5961
   20POPC   H4Y 2643   3.016   6.036   5.221 -0.0544 -1.6449 -1.5241
   20POPC   C35 2644   3.113   5.899   5.074  0.2960  0.4926  0.3205
   20POPC   H5X 2645   3.069   5.801   5.103 -1.6823  0.5320 -2.1694
   20POPC   H5Y 2646   3.217   5.875   5.043  0.1649  1.1452 -0.6730
   20POPC   C36 2647   3.032   5.937   4.952 -0.4065 -0.0689  0.0486
   20POPC   H6X 2648   3.087   5.897   4.864 -1.4938 -2.4672  0.3753
   20POPC   H6Y 2649   3.020   6.046   4.931 -1.1226 -0.6628 -3.2640
   20POPC   C37 2650   2.884   5.892   4.937  0.2458 -0.4923  0.7907
   20POPC   H7X 2651   2.824   5.934   5.020  0.7907 -1.1140  1.5125
   20POPC   H7Y 2652   2.868   5.782   4.935 -1.7712 -0.2349  1.1032
   20POPC   C38 2653   2.804   5.946   4.812  0.5429 -0.1912  0.1861
   20POPC   H8X 2654   2.815   6.055   4.799 -1.0198 -0.0661 -0.2251
   20POPC   H8Y 2655   2.697   5.930   4.835 -0.7999  1.9813 -3.5971
   20POPC   C39 2656   2.837   5.874   4.678  0.6703 -0.1184 -0.1964
   20POPC   H9X 2657   2.798   5.771   4.685 -1.1300  0.6208  1.5330
   20POPC   H9Y 2658   2.947   5.866   4.662  0.6055 -3.8178  0.2934
   20POPC  C310 2659   2.760   5.944   4.567 -0.0196 -0.4057 -0.3667
   20POPC  H10X 2660   2.791   6.051   4.572 -1.9572  0.2237 -1.0638
   20POPC  H10Y 2661   2.654   5.956   4.596  0.7256  3.3571  1.4764
   20POPC  C311 2662   2.770   5.881   4.433  0.5970  0.8690 -0.1710
   20POPC  H11X 2663   2.678   5.896   4.372  0.0444 -3.8199 -0.9098
   20POPC  H11Y 2664   2.789   5.772   4.444  2.0038  1.0267 -0.8339
   20POPC  C312 2665   2.882   5.945   4.355  0.0720 -0.6074  0.0575
   20POPC  H12X 2666   2.975   5.941   4.415 -0.2583 -3.1971  0.4749
   20POPC  H12Y 2667   2.853   6.051   4.338  1.7481 -0.4942 -2.8526
   20POPC  C313 2668   2.906   5.867   4.222 -0.1901 -0.2972  0.1184
   20POPC  H13X 2669   2.967   5.926   4.150  1.3136 -0.6256  1.0886
   20POPC  H13Y 2670   2.818   5.858   4.154  0.1122 -0.0207 -0.3141
   20POPC  C314 2671   2.971   5.725   4.232 -0.0799 -0.0998  0.8678
   20POPC  H14X 2672   3.010   5.703   4.130  0.4599  0.4693  0.9443
   20POPC  H14Y 2673   2.903   5.640   4.253  2.9563 -2.0392  3.8382
   20POPC  C315 2674   3.091   5.712   4.324  0.1512  0.2665  0.1605
   20POPC  H15X 2675   3.129   5.608   4.332 -0.1202  0.1055 -0.6457
   20POPC  H15Y 2676   3.056   5.743   4.425  1.4689  1.0018  0.4242
   20POPC  C316 2677   3.215   5.797   4.281  0.6967 -0.2217  0.1057
   20POPC  H16X 2678   3.265   5.752   4.192  1.6701  0.3391  0.3558
   20POPC  H16Y 2679   3.282   5.820   4.366 -0.9613  0.1342  1.3595
   20POPC  H16Z 2680   3.174   5.898   4.260 -0.4179 -0.6278  0.2963
   21POPC     N 2681   5.467   4.165   5.575 -0.2627  0.4342  0.2893
   21POPC   C12 2682   5.576   4.095   5.487 -0.2035  0.1312  0.0784
   21POPC  H12A 2683   5.562   4.130   5.386 -0.2850 -1.9156 -0.6632
   21POPC  H12B 2684   5.561   3.988   5.485  0.0608  0.0983 -1.1113
   21POPC   C13 2685   5.330   4.126   5.517 -0.5877 -0.0057 -0.0431
   21POPC  H13A 2686   5.325   4.166   5.417 -0.0299  0.8155  0.2470
   21POPC  H13B 2687   5.315   4.022   5.493 -2.2462 -0.2914  1.9979
   21POPC  H13C 2688   5.250   4.175   5.570  0.5832  0.6684  1.1588
   21POPC   C14 2689   5.467   4.103   5.717 -0.0230 -0.4448  0.4898
   21POPC  H14A 2690   5.446   3.997   5.711 -1.2725 -0.1385 -3.0042
   21POPC  H14B 2691   5.561   4.126   5.765 -1.7520  3.0059  2.6623
   21POPC  H14C 2692   5.408   4.157   5.789  2.0226  0.3133  1.6962
   21POPC   C15 2693   5.471   4.311   5.576 -0.3343 -0.2013  0.1347
   21POPC  H15A 2694   5.429   4.347   5.483 -1.0464 -0.2797  0.4188
   21POPC  H15B 2695   5.572   4.350   5.581 -1.2194  2.0389  2.5139
   21POPC  H15C 2696   5.425   4.354   5.664  2.4003  1.6300  0.8126
   21POPC   C11 2697   5.733   4.113   5.510 -0.3295 -1.6344 -0.3638
   21POPC  H11A 2698   5.781   4.066   5.422  0.0602  0.6902 -1.4590
   21POPC  H11B 2699   5.758   4.067   5.608  0.3463  1.3972  0.9942
   21POPC     P 2700   5.836   4.349   5.406  0.2190 -0.3650 -0.2326
   21POPC   O13 2701   5.938   4.439   5.479  0.2174  0.1063 -0.1307
   21POPC   O14 2702   5.720   4.411   5.339 -0.1444 -0.5360  0.0231
   21POPC   O12 2703   5.776   4.248   5.514 -0.2955  0.3055 -0.2421
   21POPC   O11 2704   5.897   4.246   5.305 -0.2860 -0.5448 -0.2311
   21POPC    C1 2705   5.859   4.240   5.162  0.3062  0.0074 -1.0106
   21POPC    HA 2706   5.948   4.213   5.101 -0.0909  0.5183 -1.8343
   21POPC    HB 2707   5.830   4.341   5.128  1.7773  1.4400  1.5971
   21POPC    C2 2708   5.750   4.138   5.117  0.0474  0.6316 -0.1731
   21POPC    HS 2709   5.652   4.153   5.168 -1.0901 -1.0714 -1.7210
   21POPC   O21 2710   5.793   4.006   5.158  0.0424 -0.0067  0.0487
   21POPC   C21 2711   5.703   3.909   5.158  0.2750 -0.2590  0.2190
   21POPC   O22 2712   5.585   3.914   5.132 -0.8663  0.2457 -0.3722
   21POPC   C22 2713   5.779   3.776   5.181 -1.4050  0.2929 -0.1825
   21POPC   H2R 2714   5.700   3.705   5.214 -0.2221 -0.7511  0.4683
   21POPC   H2S 2715   5.862   3.803   5.250 -1.0548  1.2980 -0.9654
   21POPC    C3 2716   5.715   4.147   4.971  0.2036 -0.1575 -0.0104
   21POPC    HX 2717   5.623   4.091   4.944 -2.1284  2.9278  0.9136
   21POPC    HY 2718   5.790   4.088   4.914  0.1939 -1.9985  1.7620
   21POPC   O31 2719   5.697   4.292   4.940  0.2109 -0.0225 -0.6849
   21POPC   C31 2720   5.576   4.344   4.971 -0.3176  0.3715  0.3106
   21POPC   O32 2721   5.488   4.279   5.022  0.0445 -0.2187  0.3269
   21POPC   C32 2722   5.585   4.493   4.949  0.0811 -0.6843 -0.6204
   21POPC   H2X 2723   5.671   4.512   4.880  0.6880  1.0396  0.5481
   21POPC   H2Y 2724   5.616   4.541   5.044  1.0666 -1.4356 -0.5396
   21POPC   C23 2725   5.848   3.716   5.059 -0.2070 -0.5560 -0.3637
   21POPC   H3R 2726   5.940   3.773   5.036 -0.9049  0.6674 -0.2261
   21POPC   H3S 2727   5.788   3.716   4.966  2.8419 -2.5534 -2.4963
   21POPC   C24 2728   5.880   3.570   5.079 -0.6826  0.7021  0.4217
   21POPC   H4R 2729   5.790   3.507   5.095 -0.1950 -0.3036 -0.6059
   21POPC   H4S 2730   5.952   3.571   5.163  2.4091  0.8617 -2.0447
   21POPC   C25 2731   5.941   3.510   4.951 -0.1684  0.1002 -0.3334
   21POPC   H5R 2732   5.998   3.419   4.977  1.5130  1.4235  0.8363
   21POPC   H5S 2733   6.016   3.575   4.902  0.3211 -1.0911 -1.2085
   21POPC   C26 2734   5.840   3.482   4.841  0.2724 -0.8453 -0.8805
   21POPC   H6R 2735   5.775   3.567   4.812 -1.5860 -2.6506 -2.3010
   21POPC   H6S 2736   5.768   3.415   4.892  2.0361 -1.5425  0.7881
   21POPC   C27 2737   5.901   3.397   4.722 -0.6151 -0.2081  0.8312
   21POPC   H7R 2738   5.820   3.337   4.675 -1.0805  0.4765  0.7443
   21POPC   H7S 2739   5.976   3.329   4.768  1.1032  2.2439  1.8596
   21POPC   C28 2740   5.958   3.495   4.619 -0.8169 -0.1351  0.3441
   21POPC   H8R 2741   6.008   3.587   4.658  0.5964 -0.5126 -0.4774
   21POPC   H8S 2742   5.870   3.534   4.565 -0.0444 -2.1594 -2.6215
   21POPC   C29 2743   6.056   3.429   4.519  0.1012 -0.4512  0.0261
   21POPC   H91 2744   6.163   3.448   4.537 -0.6009  1.1934  3.0845
   21POPC  C210 2745   6.015   3.343   4.422  0.5082 -0.2746  0.3725
   21POPC  H101 2746   6.084   3.303   4.346  0.5252  1.3256 -0.4969
   21POPC  C211 2747   5.871   3.297   4.396 -0.8588 -0.3891 -0.1193
   21POPC  H11R 2748   5.805   3.386   4.385  1.2295  1.0567 -1.7204
   21POPC  H11S 2749   5.834   3.226   4.473  1.9174  0.9209  2.6037
   21POPC  C212 2750   5.858   3.233   4.258 -0.5804 -0.5718 -0.2266
   21POPC  H12R 2751   5.931   3.150   4.245  0.5298  0.1840  1.0205
   21POPC  H12S 2752   5.872   3.311   4.180 -1.1908  2.3076  2.3545
   21POPC  C213 2753   5.716   3.180   4.232  0.0214 -0.7308 -0.1077
   21POPC  H13R 2754   5.645   3.265   4.244 -1.8175 -2.1804 -0.3797
   21POPC  H13S 2755   5.684   3.125   4.323 -4.1567  0.1342 -0.8674
   21POPC  C214 2756   5.678   3.099   4.105  0.2778 -0.4674  0.3937
   21POPC  H14R 2757   5.731   3.002   4.108  0.1695 -0.5369  0.1164
   21POPC  H14S 2758   5.724   3.156   4.021 -0.3797  1.8770  1.5361
   21POPC  C215 2759   5.529   3.086   4.065 -0.1680 -0.5158  0.1286
   21POPC  H15R 2760   5.490   3.172   4.007 -0.3938  0.4789  1.7072
   21POPC  H15S 2761   5.475   3.078   4.162  2.8693  2.6988  2.3384
   21POPC  C216 2762   5.501   2.962   3.982 -0.4456  0.0631 -0.2388
   21POPC  H16R 2763   5.391   2.948   3.977 -0.7587  2.0626  0.1894
   21POPC  H16S 2764   5.545   2.873   4.032 -1.3825 -0.4400 -0.2890
   21POPC  C217 2765   5.551   2.976   3.843  0.2162  0.2361 -0.1456
   21POPC  H17R 2766   5.660   2.998   3.845  1.2174 -3.5111 -2.5629
   21POPC  H17S 2767   5.487   3.057   3.801 -1.0948 -0.8919 -0.3687
   21POPC  C218 2768   5.524   2.858   3.756 -0.2969 -0.5324 -0.0638
   21POPC  H18R 2769   5.551   2.876   3.650 -2.4147  1.0637 -0.4027
   21POPC  H18S 2770   5.420   2.819   3.758 -1.4641  2.3051  1.3774
   21POPC  H18T 2771   5.587   2.775   3.794 -1.4500 -1.7769 -0.7992
   21POPC   C33 2772   5.451   4.563   4.901 -0.1337 -0.0686  0.1998
   21POPC   H3X 2773   5.386   4.490   4.849 -0.0124 -1.8063  2.3399
   21POPC   H3Y 2774   5.470   4.647   4.830 -0.3406  0.6321  0.9596
   21POPC   C34 2775   5.354   4.608   5.006  0.5285 -0.2819  0.4770
   21POPC   H4X 2776   5.418   4.665   5.077  1.3944  2.7096 -2.4201
   21POPC   H4Y 2777   5.309   4.522   5.058  0.6759 -0.9208 -0.4278
   21POPC   C35 2778   5.239   4.702   4.962  0.8008  0.2410 -0.3230
   21POPC   H5X 2779   5.277   4.793   4.912 -0.7547  1.0939 -0.0222
   21POPC   H5Y 2780   5.177   4.740   5.046 -1.2432  2.3549 -2.6362
   21POPC   C36 2781   5.134   4.632   4.872 -0.3881  0.4794  0.5470
   21POPC   H6X 2782   5.093   4.542   4.922 -0.5243 -0.1422 -0.6394
   21POPC   H6Y 2783   5.180   4.597   4.777 -1.3024 -1.9434  0.9284
   21POPC   C37 2784   5.021   4.719   4.841  0.8192 -0.2353  0.3671
   21POPC   H7X 2785   5.071   4.809   4.797  0.4363 -1.1605 -2.1261
   21POPC   H7Y 2786   4.964   4.747   4.932 -2.4883 -0.6001 -1.4563
   21POPC   C38 2787   4.927   4.667   4.735 -0.5512 -0.5947  0.2055
   21POPC   H8X 2788   4.988   4.620   4.654  3.3942  0.8764  2.0416
   21POPC   H8Y 2789   4.880   4.754   4.684  1.1371 -0.3154 -0.9929
   21POPC   C39 2790   4.828   4.574   4.783 -0.7095  0.2465 -0.4754
   21POPC   H9X 2791   4.744   4.623   4.837  0.4867  1.1675  0.6341
   21POPC   H9Y 2792   4.878   4.504   4.853 -0.5892 -1.2547 -2.0169
   21POPC  C310 2793   4.777   4.484   4.673  0.8830  0.0403  0.0076
   21POPC  H10X 2794   4.856   4.423   4.625 -0.7833 -1.6353 -0.7390
   21POPC  H10Y 2795   4.726   4.552   4.601 -0.2794  0.6806  1.3807
   21POPC  C311 2796   4.683   4.381   4.735  0.0079  0.1971  0.0543
   21POPC  H11X 2797   4.583   4.416   4.769 -0.0232  0.4580 -0.2948
   21POPC  H11Y 2798   4.733   4.327   4.818 -0.0332  1.0070  0.6085
   21POPC  C312 2799   4.653   4.272   4.630 -0.2459  0.0558 -0.1583
   21POPC  H12X 2800   4.737   4.254   4.560 -0.7638 -0.3602 -0.6858
   21POPC  H12Y 2801   4.565   4.297   4.567 -0.2464  0.5126  0.0192
   21POPC  C313 2802   4.609   4.139   4.694  0.4908 -0.3555 -0.7378
   21POPC  H13X 2803   4.554   4.167   4.787  0.5096 -1.3270 -0.4222
   21POPC  H13Y 2804   4.701   4.085   4.725  2.0811  1.4846 -1.9907
   21POPC  C314 2805   4.541   4.051   4.594  0.0017  0.1515 -0.1732
   21POPC  H14X 2806   4.452   4.106   4.557 -0.5946 -1.3717 -1.1191
   21POPC  H14Y 2807   4.497   3.957   4.634 -0.7929 -0.0070 -1.3673
   21POPC  C315 2808   4.624   4.011   4.461 -0.6253 -0.6678 -0.0906
   21POPC  H15X 2809   4.731   4.014   4.490 -0.5782  0.8375 -0.3280
   21POPC  H15Y 2810   4.624   4.095   4.388  4.2953  0.7110  1.0830
   21POPC  C316 2811   4.586   3.866   4.410  0.2349 -0.2948  1.6739
   21POPC  H16X 2812   4.624   3.791   4.482 -0.1507  1.2997  3.6236
   21POPC  H16Y 2813   4.631   3.845   4.311  0.2271 -0.8227  1.7804
   21POPC  H16Z 2814   4.477   3.863   4.388  0.7734  0.5849 -1.6571
   22POPC     N 2815   2.457   6.758   5.621 -0.3139  0.5691 -0.2398
   22POPC   C12 2816   2.529   6.874   5.690 -0.0960  0.3566  0.8761
   22POPC  H12A 2817   2.636   6.867   5.676 -0.2966  0.2333 -0.7348
   22POPC  H12B 2818   2.513   6.860   5.796 -2.4852  0.5823  0.5971
   22POPC   C13 2819   2.311   6.764   5.635 -0.2167  0.3255 -0.2069
   22POPC  H13A 2820   2.290   6.739   5.738  1.0797  1.7480  0.4371
   22POPC  H13B 2821   2.275   6.860   5.603 -0.4581  0.2297 -0.2270
   22POPC  H13C 2822   2.254   6.687   5.584  0.3090 -1.6634  2.0165
   22POPC   C14 2823   2.484   6.772   5.478  0.3109  0.1900 -0.0177
   22POPC  H14A 2824   2.425   6.700   5.423  0.1455 -0.3586  0.8601
   22POPC  H14B 2825   2.450   6.873   5.459  0.2467 -0.0455 -1.2584
   22POPC  H14C 2826   2.587   6.780   5.449 -0.3303 -1.5219 -3.1850
   22POPC   C15 2827   2.507   6.630   5.677 -0.3064 -0.2203  0.0855
   22POPC  H15A 2828   2.467   6.551   5.616 -0.4275 -0.1966  0.1318
   22POPC  H15B 2829   2.469   6.616   5.777  0.3422  0.9325  0.5185
   22POPC  H15C 2830   2.615   6.633   5.672 -0.1646 -0.7498  2.0608
   22POPC   C11 2831   2.477   7.018   5.647  0.6401 -0.0588  0.3386
   22POPC  H11A 2832   2.515   7.097   5.715 -0.0364  1.4934 -1.0203
   22POPC  H11B 2833   2.367   7.015   5.662  0.1701  0.2191 -2.4582
   22POPC     P 2834   2.652   7.107   5.477 -0.1852  0.1295  0.1657
   22POPC   O13 2835   2.745   7.007   5.530  0.6184  0.2363 -0.6516
   22POPC   O14 2836   2.664   7.241   5.533  0.3935 -0.4062  0.3829
   22POPC   O12 2837   2.510   7.048   5.508 -0.3872  0.3158  0.5834
   22POPC   O11 2838   2.659   7.116   5.322  0.4434 -0.5468 -0.1681
   22POPC    C1 2839   2.621   7.007   5.241 -0.4604  0.5966  0.1242
   22POPC    HA 2840   2.512   7.005   5.219 -0.6926 -1.9805  1.1346
   22POPC    HB 2841   2.642   6.915   5.300  1.0052  1.2696  0.6927
   22POPC    C2 2842   2.717   7.000   5.120  0.1596 -0.8613  0.1495
   22POPC    HS 2843   2.817   7.036   5.153  0.5577  1.4886 -3.1804
   22POPC   O21 2844   2.676   7.095   5.025  0.5313 -0.2076  0.1783
   22POPC   C21 2845   2.764   7.128   4.930 -0.9279 -0.3705 -0.1765
   22POPC   O22 2846   2.870   7.072   4.911 -0.1543 -0.2663 -0.0722
   22POPC   C22 2847   2.699   7.245   4.845 -0.1025  0.0045  0.6077
   22POPC   H2R 2848   2.659   7.325   4.910 -1.0287 -0.4107  0.5608
   22POPC   H2S 2849   2.614   7.208   4.783 -0.2175  1.3245 -0.0655
   22POPC    C3 2850   2.729   6.858   5.055 -0.1767  0.4164 -0.4674
   22POPC    HX 2851   2.782   6.791   5.126  1.0803  0.9360 -0.8806
   22POPC    HY 2852   2.796   6.849   4.967 -0.9035 -1.3430 -0.8924
   22POPC   O31 2853   2.599   6.811   5.018  0.1530  0.1316  0.4200
   22POPC   C31 2854   2.532   6.740   5.099 -0.3819 -0.0661 -0.1869
   22POPC   O32 2855   2.577   6.668   5.183 -0.6981  0.4245 -0.1134
   22POPC   C32 2856   2.382   6.743   5.059 -0.2260 -0.0504 -0.3292
   22POPC   H2X 2857   2.318   6.734   5.150 -3.6314 -0.0672 -2.5610
   22POPC   H2Y 2858   2.366   6.648   5.004  1.8516 -1.9703  2.1245
   22POPC   C23 2859   2.810   7.288   4.747 -0.6056 -0.1378 -0.4092
   22POPC   H3R 2860   2.872   7.204   4.709  1.2332  0.5057  1.0104
   22POPC   H3S 2861   2.879   7.351   4.808 -1.6747 -0.4062  1.1353
   22POPC   C24 2862   2.762   7.367   4.624 -0.6394 -0.0054 -0.1888
   22POPC   H4R 2863   2.691   7.301   4.570 -1.4218  0.8845 -0.2660
   22POPC   H4S 2864   2.844   7.384   4.550 -0.5365  1.1263  0.1606
   22POPC   C25 2865   2.694   7.495   4.647  0.3429 -0.0447 -0.4029
   22POPC   H5R 2866   2.764   7.570   4.691 -1.2216  1.2472 -0.0334
   22POPC   H5S 2867   2.624   7.480   4.732 -0.1060  2.3697 -0.2846
   22POPC   C26 2868   2.611   7.549   4.533  0.2924 -0.3268 -0.1821
   22POPC   H6R 2869   2.540   7.466   4.515  1.2160 -1.3336  0.7051
   22POPC   H6S 2870   2.677   7.575   4.447  0.6579  0.9454  0.4595
   22POPC   C27 2871   2.529   7.679   4.558  0.0153 -0.4811 -0.7968
   22POPC   H7R 2872   2.556   7.739   4.647 -0.3466 -0.5217 -0.6555
   22POPC   H7S 2873   2.427   7.643   4.587 -0.0716  1.3238  1.4458
   22POPC   C28 2874   2.526   7.763   4.432  0.6754 -0.0813 -0.7335
   22POPC   H8R 2875   2.521   7.691   4.348  0.3424  1.3649 -2.0064
   22POPC   H8S 2876   2.625   7.814   4.425  0.3829  0.7400  0.7595
   22POPC   C29 2877   2.407   7.850   4.440  0.0124  1.0750 -0.8283
   22POPC   H91 2878   2.397   7.906   4.534 -0.4998 -1.4845  0.7576
   22POPC  C210 2879   2.304   7.867   4.351  0.3230  0.2949 -0.3897
   22POPC  H101 2880   2.237   7.950   4.379  1.5829  0.2000  3.5997
   22POPC  C211 2881   2.290   7.807   4.216  0.2400 -0.1377 -0.6182
   22POPC  H11R 2882   2.204   7.738   4.230  0.9602 -0.7839  0.8905
   22POPC  H11S 2883   2.376   7.742   4.189 -0.3513 -2.0981  1.7923
   22POPC  C212 2884   2.270   7.910   4.103 -0.1912 -0.4139 -0.3277
   22POPC  H12R 2885   2.299   7.870   4.004 -1.0922 -0.1169 -0.7264
   22POPC  H12S 2886   2.349   7.985   4.122  0.2856 -0.8943 -0.3813
   22POPC  C213 2887   2.127   7.966   4.086 -0.2673 -0.5732  0.4462
   22POPC  H13R 2888   2.101   8.032   4.172 -1.2740 -0.3081 -0.0501
   22POPC  H13S 2889   2.053   7.884   4.073 -1.8367  0.8455  0.0342
   22POPC  C214 2890   2.103   8.050   3.957  0.0254  0.3072 -0.3438
   22POPC  H14R 2891   2.181   8.129   3.960  0.0669  0.2500  0.1103
   22POPC  H14S 2892   2.005   8.101   3.967  1.0706  2.2483  0.6692
   22POPC  C215 2893   2.119   7.975   3.829 -0.0240  0.6325 -0.0246
   22POPC  H15R 2894   2.050   7.888   3.837 -1.4192  1.5289 -1.5852
   22POPC  H15S 2895   2.219   7.934   3.806 -0.9053 -2.0530  0.5766
   22POPC  C216 2896   2.073   8.049   3.703 -0.7621  0.1076 -0.0191
   22POPC  H16R 2897   2.143   8.135   3.693 -2.3695  1.4379 -0.3277
   22POPC  H16S 2898   1.968   8.087   3.709 -1.5569 -1.8063 -0.9726
   22POPC  C217 2899   2.076   7.950   3.584  0.1255  0.0933 -0.3320
   22POPC  H17R 2900   2.038   7.854   3.625 -4.0168  2.0649  0.9294
   22POPC  H17S 2901   2.176   7.953   3.536 -0.1614 -0.8679 -1.0072
   22POPC  C218 2902   1.972   7.992   3.478  0.6725  0.2369 -0.3145
   22POPC  H18R 2903   1.870   7.957   3.506  1.3540 -2.0855 -0.5235
   22POPC  H18S 2904   1.996   7.941   3.382 -0.3114  1.8547 -1.4665
   22POPC  H18T 2905   1.978   8.100   3.454 -3.1246  0.8092  0.7381
   22POPC   C33 2906   2.334   6.870   4.990  0.4111 -0.6937  0.1045
   22POPC   H3X 2907   2.384   6.961   5.030  3.1272 -1.1397 -1.9987
   22POPC   H3Y 2908   2.226   6.864   5.017  0.6942  0.2953  1.6355
   22POPC   C34 2909   2.350   6.856   4.839 -0.2682 -0.1412 -0.4332
   22POPC   H4X 2910   2.321   6.753   4.809  1.7076 -0.6382 -0.7598
   22POPC   H4Y 2911   2.457   6.865   4.810 -0.6429  3.6112 -1.1186
   22POPC   C35 2912   2.272   6.956   4.755 -0.2134  0.1198 -0.3472
   22POPC   H5X 2913   2.312   7.059   4.771 -0.6460  0.1836  0.3754
   22POPC   H5Y 2914   2.165   6.952   4.788 -0.4548  1.2205 -0.9309
   22POPC   C36 2915   2.281   6.923   4.604 -0.6221 -0.4472  0.2059
   22POPC   H6X 2916   2.210   6.993   4.555 -0.1394 -1.4159 -2.0166
   22POPC   H6Y 2917   2.251   6.818   4.584  1.6506 -0.8507 -1.5242
   22POPC   C37 2918   2.426   6.955   4.546  0.3975 -0.2193 -0.6719
   22POPC   H7X 2919   2.485   6.878   4.600  0.6373  1.4142  1.5486
   22POPC   H7Y 2920   2.468   7.046   4.593 -2.4498  0.8729 -0.0038
   22POPC   C38 2921   2.440   6.959   4.396 -0.0185  0.4537  0.0796
   22POPC   H8X 2922   2.549   6.971   4.379 -0.4045  2.0449 -1.6669
   22POPC   H8Y 2923   2.386   7.048   4.358  1.2854  1.7997  1.2421
   22POPC   C39 2924   2.379   6.841   4.319 -0.5334  0.0913 -0.1705
   22POPC   H9X 2925   2.393   6.864   4.212 -0.0534 -1.3559 -0.4489
   22POPC   H9Y 2926   2.271   6.832   4.346 -0.3496  2.0337  1.4136
   22POPC  C310 2927   2.437   6.698   4.354 -1.0674  0.4521 -0.4578
   22POPC  H10X 2928   2.440   6.700   4.465 -0.0946  0.1510 -0.4645
   22POPC  H10Y 2929   2.537   6.709   4.308  0.0557 -0.9308  1.4652
   22POPC  C311 2930   2.368   6.580   4.293 -0.1699  0.1667  0.1694
   22POPC  H11X 2931   2.422   6.491   4.331  1.0395  1.1564  0.8712
   22POPC  H11Y 2932   2.383   6.581   4.183  1.1745  0.5115  0.3327
   22POPC  C312 2933   2.217   6.564   4.321 -0.0531 -0.5029 -0.8690
   22POPC  H12X 2934   2.183   6.472   4.268  1.2885 -1.5186 -0.0354
   22POPC  H12Y 2935   2.165   6.651   4.275  0.1404  0.3586  0.4959
   22POPC  C313 2936   2.185   6.549   4.476  0.1252 -0.0678  0.3128
   22POPC  H13X 2937   2.075   6.540   4.478  0.1765 -0.6116  0.8407
   22POPC  H13Y 2938   2.201   6.636   4.542 -0.2161 -0.2425  0.6303
   22POPC  C314 2939   2.236   6.415   4.538 -0.6728 -0.9531 -0.3597
   22POPC  H14X 2940   2.339   6.428   4.577  0.0936 -2.8333 -1.6152
   22POPC  H14Y 2941   2.244   6.329   4.468 -0.3778 -0.0943 -1.4006
   22POPC  C315 2942   2.143   6.374   4.657  0.3388  0.7994 -0.0877
   22POPC  H15X 2943   2.044   6.331   4.629 -0.0141  0.7787  1.1306
   22POPC  H15Y 2944   2.117   6.467   4.712 -0.4601  2.0403 -2.4479
   22POPC  C316 2945   2.204   6.280   4.762 -0.2832  0.0297  0.0414
   22POPC  H16X 2946   2.131   6.251   4.841 -2.1012 -1.5692 -2.1045
   22POPC  H16Y 2947   2.294   6.330   4.803  2.7475 -2.3461 -3.1312
   22POPC  H16Z 2948   2.230   6.183   4.714  1.3836  1.6076 -2.4992
   23POPC     N 2949   3.999   2.632   6.392  0.0529  0.1366  0.2432
   23POPC   C12 2950   3.957   2.761   6.316  0.0778 -0.2426 -0.0540
   23POPC  H12A 2951   4.006   2.845   6.363 -0.3369  1.3420 -2.3345
   23POPC  H12B 2952   3.851   2.775   6.331  0.0927  0.1829 -0.3238
   23POPC   C13 2953   3.953   2.628   6.534 -0.5326  0.3344  0.1774
   23POPC  H13A 2954   4.003   2.548   6.587  0.5130 -0.2981 -1.6837
   23POPC  H13B 2955   3.968   2.727   6.575  0.0806  1.1689 -1.9405
   23POPC  H13C 2956   3.849   2.599   6.526 -0.5323  0.6623 -1.1457
   23POPC   C14 2957   3.957   2.509   6.321 -0.0010  0.2521  0.1100
   23POPC  H14A 2958   3.850   2.492   6.327  0.1216 -2.1331 -2.4123
   23POPC  H14B 2959   3.978   2.515   6.215 -3.3427 -0.8919 -0.7415
   23POPC  H14C 2960   3.996   2.418   6.364 -3.4548 -1.5156 -0.1603
   23POPC   C15 2961   4.150   2.632   6.396 -0.8162 -0.2511  0.4115
   23POPC  H15A 2962   4.189   2.536   6.427  1.6880  1.1285  1.8284
   23POPC  H15B 2963   4.182   2.715   6.457 -0.3535  0.2974 -0.5488
   23POPC  H15C 2964   4.198   2.646   6.300 -1.9456  1.7753  0.0925
   23POPC   C11 2965   3.990   2.793   6.167  0.0488  0.0083  0.1117
   23POPC  H11A 2966   3.959   2.899   6.150  1.1519  0.4786  0.9272
   23POPC  H11B 2967   3.941   2.726   6.093  1.1948 -0.5758 -0.1359
   23POPC     P 2968   4.234   2.906   6.155  0.0959 -0.2108 -0.2350
   23POPC   O13 2969   4.366   2.850   6.138  0.1683 -0.0522 -0.6891
   23POPC   O14 2970   4.204   2.995   6.275  0.1723 -0.1033  0.0870
   23POPC   O12 2971   4.131   2.784   6.153 -0.3990 -0.2846 -0.0742
   23POPC   O11 2972   4.179   2.970   6.021 -0.6804 -0.2085 -0.1199
   23POPC    C1 2973   4.277   2.993   5.923 -0.1080  0.3106 -0.0119
   23POPC    HA 2974   4.351   2.911   5.921  2.2282  2.2870  0.1504
   23POPC    HB 2975   4.325   3.093   5.938  2.7486 -0.9715 -0.0328
   23POPC    C2 2976   4.205   2.986   5.781  0.7616 -0.4014  0.3505
   23POPC    HS 2977   4.281   2.986   5.701 -0.5424 -0.3114 -0.9321
   23POPC   O21 2978   4.120   3.099   5.758 -0.0393 -0.0255 -0.0853
   23POPC   C21 2979   4.173   3.201   5.701  0.0564 -0.3886 -0.1295
   23POPC   O22 2980   4.292   3.228   5.700 -0.3022  0.0379 -0.7952
   23POPC   C22 2981   4.056   3.282   5.633  0.3736 -0.5062 -0.5805
   23POPC   H2R 2982   4.099   3.375   5.590  1.8374 -2.0418 -2.6586
   23POPC   H2S 2983   3.980   3.306   5.710  3.1839  1.9987  1.6634
   23POPC    C3 2984   4.122   2.858   5.760  0.1560  0.4239 -0.1520
   23POPC    HX 2985   4.049   2.842   5.843  0.0762  1.1607 -0.0801
   23POPC    HY 2986   4.190   2.770   5.766  1.8883  1.4629 -2.7195
   23POPC   O31 2987   4.047   2.860   5.638 -0.3018  0.3284  0.2370
   23POPC   C31 2988   4.122   2.826   5.525 -0.6660  0.3724 -0.5696
   23POPC   O32 2989   4.245   2.816   5.526  0.4480 -0.1370 -0.5165
   23POPC   C32 2990   4.025   2.802   5.414  0.5995  0.6528 -0.2933
   23POPC   H2X 2991   3.949   2.883   5.402 -1.1135 -0.7088  0.8561
   23POPC   H2Y 2992   3.968   2.709   5.436  2.5525 -0.5578 -0.1790
   23POPC   C23 2993   3.984   3.200   5.516  0.0463  0.6381 -0.0665
   23POPC   H3R 2994   3.898   3.268   5.496  0.1214  1.4136  1.9635
   23POPC   H3S 2995   3.955   3.100   5.553 -0.0153  0.1506 -1.3831
   23POPC   C24 2996   4.067   3.190   5.391  0.1518  0.3974  0.1284
   23POPC   H4R 2997   4.149   3.115   5.395 -0.4472 -0.4524 -2.3832
   23POPC   H4S 2998   4.112   3.292   5.382  1.2315 -0.0448  0.3104
   23POPC   C25 2999   3.980   3.164   5.263  0.0288  0.1755  0.2211
   23POPC   H5R 3000   3.907   3.248   5.261 -0.2439 -0.0272  1.0085
   23POPC   H5S 3001   3.920   3.070   5.260 -1.7999  1.2875  0.1095
   23POPC   C26 3002   4.068   3.178   5.135  0.3178 -0.0711 -0.1414
   23POPC   H6R 3003   4.157   3.112   5.138  0.1656 -0.2854 -0.2985
   23POPC   H6S 3004   4.113   3.279   5.137 -1.8766  0.9844  2.6277
   23POPC   C27 3005   4.001   3.130   5.007 -0.0029 -0.0481 -0.5712
   23POPC   H7R 3006   3.906   3.188   5.001 -0.0140  0.1566  1.1422
   23POPC   H7S 3007   3.970   3.026   5.032  0.3763  0.5040  2.4652
   23POPC   C28 3008   4.089   3.147   4.881  0.6786 -0.0014  0.5996
   23POPC   H8R 3009   4.176   3.080   4.899  1.2045  0.0901 -1.3359
   23POPC   H8S 3010   4.141   3.245   4.869  0.9124 -0.3364 -1.4304
   23POPC   C29 3011   4.007   3.100   4.764  0.5362  0.4641  0.2187
   23POPC   H91 3012   3.973   2.997   4.780  3.0133 -0.7527 -1.6109
   23POPC  C210 3013   3.981   3.166   4.652  0.4826  0.1954  0.1284
   23POPC  H101 3014   3.928   3.108   4.575  0.2018  2.3700 -1.4018
   23POPC  C211 3015   4.020   3.308   4.629  0.6529 -0.2456  0.3029
   23POPC  H11R 3016   4.121   3.323   4.585  0.4014  0.7128  0.0298
   23POPC  H11S 3017   4.019   3.362   4.727  2.0870  0.1027  0.1540
   23POPC  C212 3018   3.922   3.373   4.527 -0.1873 -0.0262 -1.0025
   23POPC  H12R 3019   3.935   3.483   4.540  1.3082 -0.2192 -0.6630
   23POPC  H12S 3020   3.816   3.369   4.559  0.4178  2.0247  1.7097
   23POPC  C213 3021   3.943   3.318   4.388 -0.4779 -0.6280 -0.5658
   23POPC  H13R 3022   3.902   3.393   4.317  1.8886  0.1160 -1.2415
   23POPC  H13S 3023   3.883   3.225   4.371 -0.8436  0.1269 -4.5644
   23POPC  C214 3024   4.086   3.303   4.331  0.6464 -0.0626 -0.1225
   23POPC  H14R 3025   4.096   3.237   4.242  0.0885  0.3960 -0.5332
   23POPC  H14S 3026   4.142   3.249   4.411  0.7719 -1.8802 -1.3683
   23POPC  C215 3027   4.144   3.448   4.304  0.6951 -0.1358 -0.5219
   23POPC  H15R 3028   4.145   3.499   4.403 -0.5113 -1.2723  0.1047
   23POPC  H15S 3029   4.078   3.504   4.234  0.1930  1.0283  0.8372
   23POPC  C216 3030   4.288   3.453   4.251  0.8733  0.2254  0.4095
   23POPC  H16R 3031   4.284   3.394   4.157  0.0722 -1.2234  1.3174
   23POPC  H16S 3032   4.358   3.403   4.322  1.2826  0.6440  0.3044
   23POPC  C217 3033   4.329   3.596   4.201  0.0602 -0.2725 -0.2390
   23POPC  H17R 3034   4.359   3.656   4.290 -0.0774 -2.2459  1.2136
   23POPC  H17S 3035   4.235   3.644   4.168 -1.4441 -2.0822  1.1752
   23POPC  C218 3036   4.435   3.595   4.094 -0.6052 -0.1945  0.3381
   23POPC  H18R 3037   4.385   3.566   4.000  1.5512 -0.7937 -0.6794
   23POPC  H18S 3038   4.519   3.527   4.120 -1.3943 -1.0323  0.7864
   23POPC  H18T 3039   4.478   3.691   4.060  4.6534 -3.0267 -2.2593
   23POPC   C33 3040   4.093   2.784   5.281  0.0617 -0.0038 -0.3995
   23POPC   H3X 3041   4.183   2.719   5.294 -0.5346 -0.7854 -0.0568
   23POPC   H3Y 3042   4.126   2.889   5.272  0.0416  0.1068  0.7113
   23POPC   C34 3043   4.000   2.744   5.175  0.0566  0.1295 -0.1244
   23POPC   H4X 3044   3.919   2.819   5.162 -0.4065 -0.0589  1.4766
   23POPC   H4Y 3045   3.956   2.651   5.218 -1.6097  1.1710  0.5173
   23POPC   C35 3046   4.066   2.719   5.039 -0.1808  0.3078 -0.0289
   23POPC   H5X 3047   4.129   2.627   5.044 -1.1155 -0.6266 -3.0146
   23POPC   H5Y 3048   4.127   2.808   5.014 -0.8163  0.5384 -0.8006
   23POPC   C36 3049   3.970   2.705   4.926  1.2480  0.0957 -0.0980
   23POPC   H6X 3050   3.887   2.778   4.919 -0.0599 -1.1620  1.6056
   23POPC   H6Y 3051   3.923   2.605   4.929 -0.2047  0.7071 -1.5093
   23POPC   C37 3052   4.046   2.708   4.794  0.2146 -1.2524  0.4527
   23POPC   H7X 3053   4.134   2.640   4.791  0.8211 -0.4989  0.7449
   23POPC   H7Y 3054   4.091   2.810   4.791 -0.9662 -0.6565  1.7886
   23POPC   C38 3055   3.948   2.696   4.671 -0.1005  0.7040  0.3884
   23POPC   H8X 3056   3.861   2.763   4.679 -0.4125  0.3180  0.2881
   23POPC   H8Y 3057   3.907   2.592   4.669  0.4812  0.4589 -1.3535
   23POPC   C39 3058   4.019   2.715   4.537 -0.5414  0.4781  0.5884
   23POPC   H9X 3059   4.110   2.652   4.531 -2.8777 -2.9830 -1.4467
   23POPC   H9Y 3060   4.048   2.823   4.534 -0.7980  0.6450  2.6368
   23POPC  C310 3061   3.934   2.691   4.415  0.4462  0.2696  0.7271
   23POPC  H10X 3062   3.980   2.732   4.323  0.0005  1.0966  0.8584
   23POPC  H10Y 3063   3.835   2.743   4.421  0.3529  0.8583 -3.1945
   23POPC  C311 3064   3.905   2.545   4.383  0.0907  0.2562  0.0924
   23POPC  H11X 3065   3.892   2.485   4.475 -0.0751 -0.5731 -0.4646
   23POPC  H11Y 3066   3.991   2.503   4.327  0.3031  1.0065 -0.1556
   23POPC  C312 3067   3.771   2.525   4.307 -0.5831 -0.0964  0.9363
   23POPC  H12X 3068   3.772   2.578   4.209 -0.9763  0.0830  1.0275
   23POPC  H12Y 3069   3.682   2.555   4.366  0.3801  0.3567  2.1967
   23POPC  C313 3070   3.747   2.373   4.264  0.2416  0.1576 -0.1370
   23POPC  H13X 3071   3.734   2.321   4.362  1.0028  0.7951  0.3199
   23POPC  H13Y 3072   3.845   2.340   4.224  0.4610  0.2803  0.2907
   23POPC  C314 3073   3.636   2.351   4.166  0.4669 -0.3839  0.3662
   23POPC  H14X 3074   3.657   2.400   4.068 -2.1295  0.6688  0.2575
   23POPC  H14Y 3075   3.535   2.390   4.190  0.6644 -0.9453  2.2425
   23POPC  C315 3076   3.623   2.203   4.130 -0.4256  0.5421 -0.3769
   23POPC  H15X 3077   3.606   2.156   4.230 -0.3512  0.7218 -0.2789
   23POPC  H15Y 3078   3.714   2.171   4.075 -0.6832 -0.1584 -0.4149
   23POPC  C316 3079   3.491   2.165   4.051  0.3481 -0.2982 -0.2946
   23POPC  H16X 3080   3.504   2.067   4.001 -0.9530 -0.7984  0.2971
   23POPC  H16Y 3081   3.470   2.249   3.982 -1.1885 -0.0077  0.4883
   23POPC  H16Z 3082   3.406   2.169   4.122  1.3763  0.7695  0.9395
   24POPC     N 3083   3.007   1.838   6.120  0.0909  0.8491  0.1563
   24POPC   C12 3084   3.049   1.773   5.991  0.2735 -0.2013  0.5062
   24POPC  H12A 3085   2.972   1.800   5.921 -0.8717 -0.7603  1.5068
   24POPC  H12B 3086   3.049   1.667   6.008  0.9778 -0.4170 -0.7517
   24POPC   C13 3087   3.010   1.984   6.107  0.3305 -0.7273 -0.0893
   24POPC  H13A 3088   2.987   2.019   6.206  1.4195  1.5683 -0.5734
   24POPC  H13B 3089   3.108   2.024   6.086  0.2861 -0.4876  0.1497
   24POPC  H13C 3090   2.946   2.009   6.024  0.4462 -1.0347 -0.2702
   24POPC   C14 3091   2.867   1.806   6.145  0.5341 -0.2874 -0.3200
   24POPC  H14A 3092   2.826   1.854   6.232  0.7294  0.5732 -0.6994
   24POPC  H14B 3093   2.813   1.837   6.057 -1.5889 -0.8031  0.7365
   24POPC  H14C 3094   2.851   1.700   6.161 -0.4617 -0.2721 -1.1106
   24POPC   C15 3095   3.094   1.795   6.239 -0.5630  0.4159  0.5590
   24POPC  H15A 3096   3.103   1.688   6.241 -0.6254  0.4190  0.9824
   24POPC  H15B 3097   3.054   1.845   6.326  2.4436  3.5284  0.4082
   24POPC  H15C 3098   3.196   1.829   6.227 -0.8573  1.0463 -0.2903
   24POPC   C11 3099   3.194   1.810   5.946 -0.7455  0.4428  0.1708
   24POPC  H11A 3100   3.190   1.920   5.927 -1.5020  0.1983 -1.2162
   24POPC  H11B 3101   3.208   1.764   5.846  0.1685  1.8614 -0.3976
   24POPC     P 3102   3.343   1.634   6.070 -0.0494 -0.3961  0.3646
   24POPC   O13 3103   3.253   1.547   5.985  0.4402 -0.4170 -0.3062
   24POPC   O14 3104   3.344   1.614   6.218  0.2090 -0.5085 -0.5322
   24POPC   O12 3105   3.302   1.789   6.039 -0.4762 -0.4536  0.3536
   24POPC   O11 3106   3.496   1.617   6.026  0.5044  0.0869 -0.4724
   24POPC    C1 3107   3.556   1.703   5.924  0.1729  0.1254  0.0973
   24POPC    HA 3108   3.664   1.722   5.939  0.5156 -0.8377 -1.0097
   24POPC    HB 3109   3.511   1.804   5.922  0.8115  0.4250  0.5987
   24POPC    C2 3110   3.536   1.635   5.783 -0.8077 -0.1809  0.3236
   24POPC    HS 3111   3.426   1.629   5.768 -0.9501 -0.5666  1.3980
   24POPC   O21 3112   3.607   1.511   5.785 -0.4008  0.0443  0.2380
   24POPC   C21 3113   3.566   1.419   5.700 -0.2183  0.8585  0.6924
   24POPC   O22 3114   3.458   1.427   5.640  0.4384  0.0162  0.3445
   24POPC   C22 3115   3.660   1.299   5.693  1.0308 -0.0158 -0.1254
   24POPC   H2R 3116   3.605   1.208   5.662  1.7280 -0.5778  0.2460
   24POPC   H2S 3117   3.703   1.288   5.795  1.4574  0.1365 -0.2863
   24POPC    C3 3118   3.603   1.733   5.681  0.3321  0.1310  0.1752
   24POPC    HX 3119   3.707   1.757   5.710  0.8857 -1.3122 -0.5624
   24POPC    HY 3120   3.534   1.820   5.688 -2.0977 -1.7018  0.3112
   24POPC   O31 3121   3.593   1.678   5.548 -0.2204 -0.1970  0.8291
   24POPC   C31 3122   3.473   1.692   5.495  0.2818  0.0737  0.0671
   24POPC   O32 3123   3.376   1.753   5.540 -0.0126  0.0819  0.0238
   24POPC   C32 3124   3.468   1.619   5.361 -0.0559  0.1132  0.4713
   24POPC   H2X 3125   3.472   1.513   5.392  2.4125 -0.4348 -1.4298
   24POPC   H2Y 3126   3.555   1.650   5.300 -0.2950  2.0052  1.0169
   24POPC   C23 3127   3.783   1.324   5.601  0.0138  0.3982 -0.2176
   24POPC   H3R 3128   3.837   1.228   5.587 -0.9979  0.0260 -1.8091
   24POPC   H3S 3129   3.853   1.403   5.636 -0.2421  0.3540  0.4117
   24POPC   C24 3130   3.740   1.357   5.455 -0.4535  0.1194  0.0969
   24POPC   H4R 3131   3.691   1.457   5.451  0.9185  0.8724  1.1920
   24POPC   H4S 3132   3.669   1.276   5.428  1.2246 -1.2073 -0.5111
   24POPC   C25 3133   3.854   1.369   5.357 -0.3464 -0.4241  0.3422
   24POPC   H5R 3134   3.911   1.274   5.366 -1.3124 -1.2538 -1.6673
   24POPC   H5S 3135   3.913   1.454   5.397 -1.5893  0.3086  0.6607
   24POPC   C26 3136   3.820   1.376   5.210 -0.7019  0.6883  0.5275
   24POPC   H6R 3137   3.901   1.373   5.134 -2.4157 -1.8852 -1.3787
   24POPC   H6S 3138   3.753   1.460   5.181  0.4433  1.7920  0.9729
   24POPC   C27 3139   3.742   1.246   5.168  0.1838  0.1828 -0.3833
   24POPC   H7R 3140   3.714   1.264   5.062 -1.8803  2.7974  0.4932
   24POPC   H7S 3141   3.642   1.229   5.214 -0.2985 -0.1722 -1.5245
   24POPC   C28 3142   3.825   1.117   5.162  0.4843 -0.0949  0.4300
   24POPC   H8R 3143   3.867   1.087   5.261 -0.6349 -1.0103  0.6480
   24POPC   H8S 3144   3.908   1.147   5.094  0.1556 -0.5725 -0.1930
   24POPC   C29 3145   3.741   1.000   5.116  0.3557 -0.7727  0.5535
   24POPC   H91 3146   3.650   0.986   5.176 -0.1818 -0.3010 -0.1283
   24POPC  C210 3147   3.756   0.923   5.010  0.0070 -0.1079  0.2998
   24POPC  H101 3148   3.693   0.834   4.994  2.1248 -1.6431 -0.0424
   24POPC  C211 3149   3.865   0.942   4.906  0.0709 -0.2732  0.2245
   24POPC  H11R 3150   3.909   0.845   4.874  0.6573 -0.1408  0.6129
   24POPC  H11S 3151   3.937   1.018   4.943 -1.2876  1.9049 -1.3377
   24POPC  C212 3152   3.805   1.013   4.778 -0.0274 -0.3746 -0.4982
   24POPC  H12R 3153   3.891   1.039   4.713  0.0318  2.1075  0.4476
   24POPC  H12S 3154   3.757   1.107   4.813  0.7163  0.1458 -0.8461
   24POPC  C213 3155   3.700   0.927   4.712  0.4809  0.7015  0.0309
   24POPC  H13R 3156   3.621   0.890   4.781  1.3693  1.3365  1.4529
   24POPC  H13S 3157   3.747   0.844   4.656  0.3276  0.5869  0.0725
   24POPC  C214 3158   3.617   1.002   4.610 -0.6766 -0.4308  0.3080
   24POPC  H14R 3159   3.676   1.051   4.531  2.8066 -1.5409  2.0017
   24POPC  H14S 3160   3.570   1.086   4.666 -0.5350  0.0527 -0.2986
   24POPC  C215 3161   3.504   0.924   4.544  0.4275 -0.2089  0.1120
   24POPC  H15R 3162   3.443   0.995   4.485 -3.2468 -2.0914  1.3173
   24POPC  H15S 3163   3.427   0.888   4.617  0.1486 -1.0522 -0.5828
   24POPC  C216 3164   3.564   0.823   4.449 -0.0634  0.1088  0.3627
   24POPC  H16R 3165   3.606   0.732   4.496  2.3680 -0.2774 -2.2918
   24POPC  H16S 3166   3.649   0.875   4.400  0.6958 -0.0816  1.4386
   24POPC  C217 3167   3.467   0.783   4.337  0.7386  0.1566  0.0357
   24POPC  H17R 3168   3.413   0.872   4.299  0.3284  0.4434  1.2693
   24POPC  H17S 3169   3.388   0.720   4.385 -1.5778  2.7564 -0.1204
   24POPC  C218 3170   3.529   0.724   4.215 -0.2155  0.1605  0.3868
   24POPC  H18R 3171   3.453   0.709   4.135 -0.0647 -0.1882  0.3066
   24POPC  H18S 3172   3.563   0.624   4.248 -1.9012 -1.0869 -1.4187
   24POPC  H18T 3173   3.610   0.792   4.181 -0.8765  0.7690  0.0193
   24POPC   C33 3174   3.337   1.644   5.283  0.5797 -0.7080 -0.2547
   24POPC   H3X 3175   3.316   1.752   5.273  0.1786 -0.9157 -2.1227
   24POPC   H3Y 3176   3.254   1.594   5.337  0.1680  1.5180  1.2967
   24POPC   C34 3177   3.330   1.592   5.139 -0.4579  0.5560  0.3790
   24POPC   H4X 3178   3.230   1.605   5.093  0.1651  1.0660 -0.9114
   24POPC   H4Y 3179   3.357   1.485   5.135 -0.2129  0.6263  0.0535
   24POPC   C35 3180   3.425   1.669   5.041  0.1444  0.0227  0.1142
   24POPC   H5X 3181   3.525   1.623   5.053  0.4691  0.4492 -0.9206
   24POPC   H5Y 3182   3.433   1.774   5.078  1.6464 -0.3026  0.7944
   24POPC   C36 3183   3.381   1.656   4.894 -0.1896 -0.2660 -0.6012
   24POPC   H6X 3184   3.451   1.728   4.847  1.4207 -0.8215  0.8447
   24POPC   H6Y 3185   3.279   1.699   4.883  0.2714  0.7177 -1.1163
   24POPC   C37 3186   3.391   1.515   4.838  0.2510  0.2992 -0.2376
   24POPC   H7X 3187   3.322   1.444   4.889 -1.1344  2.6290  1.3315
   24POPC   H7Y 3188   3.498   1.490   4.845  1.1936  3.9894  0.7989
   24POPC   C38 3189   3.361   1.519   4.684 -0.0446 -0.1656 -0.0922
   24POPC   H8X 3190   3.413   1.607   4.639  0.4397 -0.4108 -0.0259
   24POPC   H8Y 3191   3.255   1.529   4.655  0.3298  2.8638 -0.7872
   24POPC   C39 3192   3.416   1.401   4.601 -0.2518  0.0766 -0.6626
   24POPC   H9X 3193   3.358   1.313   4.637 -1.4607  0.8187 -0.7353
   24POPC   H9Y 3194   3.524   1.391   4.626 -0.2336 -0.4870 -0.9410
   24POPC  C310 3195   3.406   1.419   4.448 -0.6338 -0.0600  0.2182
   24POPC  H10X 3196   3.476   1.498   4.414  2.3378 -2.2006  0.9387
   24POPC  H10Y 3197   3.302   1.456   4.434  0.0927  1.9757 -0.2438
   24POPC  C311 3198   3.437   1.285   4.372 -0.2919 -1.0869 -0.6936
   24POPC  H11X 3199   3.357   1.210   4.386 -1.0028 -0.3535 -0.7147
   24POPC  H11Y 3200   3.521   1.240   4.429 -1.3828 -1.3833  0.7232
   24POPC  C312 3201   3.456   1.317   4.229 -0.1810 -0.7876  0.7562
   24POPC  H12X 3202   3.540   1.390   4.227 -0.3608 -0.5886 -0.0064
   24POPC  H12Y 3203   3.367   1.363   4.180  1.0766 -1.9374 -2.9366
   24POPC  C313 3204   3.497   1.191   4.152  0.1628  0.2222  0.1002
   24POPC  H13X 3205   3.413   1.117   4.149 -1.5310  2.0732 -1.1887
   24POPC  H13Y 3206   3.586   1.143   4.198 -0.0270 -1.1520 -0.8989
   24POPC  C314 3207   3.536   1.226   4.000 -0.0702  0.1423 -0.1469
   24POPC  H14X 3208   3.589   1.324   4.007 -1.6989  1.1909 -1.6561
   24POPC  H14Y 3209   3.443   1.252   3.944 -0.4200  0.7321  0.6857
   24POPC  C315 3210   3.609   1.100   3.940 -0.8404 -0.1046  0.1571
   24POPC  H15X 3211   3.686   1.055   4.006 -1.4263 -2.1228 -0.4553
   24POPC  H15Y 3212   3.659   1.136   3.847 -0.2815 -0.5916  0.2661
   24POPC  C316 3213   3.512   0.988   3.907  0.1710 -0.1964  0.3177
   24POPC  H16X 3214   3.449   0.969   3.997 -1.9203  2.6643 -0.3712
   24POPC  H16Y 3215   3.562   0.893   3.878  0.8079 -0.1301  1.1691
   24POPC  H16Z 3216   3.448   1.017   3.821  1.2446  0.2396 -0.3488
   25POPC     N 3217   2.453   5.760   5.752 -0.4355 -0.5006  0.1677
   25POPC   C12 3218   2.321   5.709   5.811 -0.4874  0.5302  0.0238
   25POPC  H12A 3219   2.315   5.605   5.781 -0.4847  0.4279  0.3713
   25POPC  H12B 3220   2.228   5.756   5.781 -0.4209  0.4607 -0.2979
   25POPC   C13 3221   2.466   5.908   5.785 -0.2024 -0.1967  0.0034
   25POPC  H13A 3222   2.568   5.942   5.792 -0.2906 -0.2718  2.6952
   25POPC  H13B 3223   2.416   5.967   5.710 -0.5669 -0.3969  0.0844
   25POPC  H13C 3224   2.411   5.932   5.874 -2.0843 -1.0344 -0.8720
   25POPC   C14 3225   2.566   5.683   5.813  0.0759  0.2337 -0.0105
   25POPC  H14A 3226   2.660   5.701   5.763 -0.7528  2.7009 -0.8365
   25POPC  H14B 3227   2.571   5.718   5.915 -1.9791  0.6801 -0.0092
   25POPC  H14C 3228   2.544   5.577   5.813 -0.5333  0.3570  0.2619
   25POPC   C15 3229   2.463   5.742   5.595 -0.8340 -0.0978 -0.0637
   25POPC  H15A 3230   2.389   5.798   5.540 -1.0068 -1.0902 -0.8606
   25POPC  H15B 3231   2.451   5.640   5.561  1.4798  0.1193 -1.7218
   25POPC  H15C 3232   2.557   5.782   5.560 -1.3791  0.3737 -1.0419
   25POPC   C11 3233   2.299   5.708   5.964  0.4026 -0.3022  0.5518
   25POPC  H11A 3234   2.386   5.660   6.014  2.9019  0.9587 -2.2682
   25POPC  H11B 3235   2.210   5.646   5.989 -0.7605  1.7467  1.8088
   25POPC     P 3236   2.132   5.911   5.998  0.4270  0.0012  0.5022
   25POPC   O13 3237   2.154   6.059   5.973 -0.1314  0.2647 -0.3492
   25POPC   O14 3238   2.047   5.873   6.111 -0.0085  0.2574 -0.3820
   25POPC   O12 3239   2.268   5.842   6.006 -0.6895  0.1817 -0.0000
   25POPC   O11 3240   2.061   5.854   5.871  0.1759 -0.3751  1.1885
   25POPC    C1 3241   1.966   5.926   5.789  0.0176  0.4337  0.1973
   25POPC    HA 3242   1.923   6.012   5.846  0.8925 -0.2277  1.9166
   25POPC    HB 3243   1.878   5.859   5.776  0.5593 -0.0769 -0.8688
   25POPC    C2 3244   2.017   5.967   5.647  0.1873 -0.4874 -0.1387
   25POPC    HS 3245   1.937   6.011   5.584 -0.9647 -1.0336  0.8999
   25POPC   O21 3246   2.085   5.866   5.572 -0.2943  0.4196 -0.1077
   25POPC   C21 3247   2.005   5.778   5.509 -0.1650 -0.1062 -1.0069
   25POPC   O22 3248   1.885   5.776   5.525  0.4711  0.3282 -0.0587
   25POPC   C22 3249   2.081   5.694   5.413  0.2457  0.5446 -0.0748
   25POPC   H2R 3250   2.015   5.616   5.370  0.4172 -0.1264  0.8753
   25POPC   H2S 3251   2.171   5.653   5.463  1.5186  1.7208 -1.2861
   25POPC    C3 3252   2.113   6.082   5.657  0.4322 -0.4853 -0.6624
   25POPC    HX 3253   2.206   6.050   5.708 -0.6651 -2.2321  0.3818
   25POPC    HY 3254   2.067   6.150   5.733  0.7138 -1.2731  0.2336
   25POPC   O31 3255   2.141   6.146   5.530  0.3489  0.4848  0.5189
   25POPC   C31 3256   2.247   6.101   5.474  0.2346  0.1880  0.1585
   25POPC   O32 3257   2.327   6.019   5.515  0.0805 -0.6049  0.1034
   25POPC   C32 3258   2.263   6.153   5.332 -0.3037 -0.1446 -0.4863
   25POPC   H2X 3259   2.257   6.263   5.345  1.8856  0.5243 -3.8416
   25POPC   H2Y 3260   2.175   6.114   5.276  0.1172  0.1782 -1.3986
   25POPC   C23 3261   2.131   5.765   5.277  0.4962  0.5601  0.1624
   25POPC   H3R 3262   2.193   5.690   5.223 -2.0641  0.1617 -2.4804
   25POPC   H3S 3263   2.203   5.845   5.305  0.0093  0.9722  0.2618
   25POPC   C24 3264   2.031   5.839   5.182  0.4642  0.0685  0.4615
   25POPC   H4R 3265   1.990   5.933   5.225  5.2126  1.5654  2.3619
   25POPC   H4S 3266   1.954   5.777   5.130 -0.4066  1.4239  0.0808
   25POPC   C25 3267   2.099   5.876   5.046 -0.0652  0.2938  0.0595
   25POPC   H5R 3268   2.145   5.789   4.996 -1.9877  0.1159 -1.5187
   25POPC   H5S 3269   2.178   5.950   5.071 -0.7117  0.7909  0.6903
   25POPC   C26 3270   1.999   5.946   4.947 -0.4722 -0.2771  0.1425
   25POPC   H6R 3271   1.915   5.873   4.941 -1.9061  1.2539  0.6299
   25POPC   H6S 3272   2.048   5.952   4.847 -1.1713  1.7359 -0.1295
   25POPC   C27 3273   1.947   6.082   4.989  0.1106 -0.0319 -0.2639
   25POPC   H7R 3274   2.028   6.154   5.012 -0.5627 -0.0750  2.5939
   25POPC   H7S 3275   1.886   6.070   5.081  0.6992 -0.2970  0.1028
   25POPC   C28 3276   1.855   6.158   4.886  0.3324  0.5493 -0.4530
   25POPC   H8R 3277   1.922   6.186   4.801 -0.3698  3.4189 -0.1654
   25POPC   H8S 3278   1.816   6.249   4.936 -0.9406 -1.1141  1.7940
   25POPC   C29 3279   1.745   6.067   4.847  0.5962  0.0361  0.3510
   25POPC   H91 3280   1.696   6.014   4.930 -0.8462 -0.3544 -0.7064
   25POPC  C210 3281   1.687   6.043   4.730 -0.0860 -0.2078  0.6239
   25POPC  H101 3282   1.608   5.967   4.728  1.3559 -1.7349 -0.4114
   25POPC  C211 3283   1.736   6.090   4.594  0.1527  0.7347  0.0720
   25POPC  H11R 3284   1.831   6.146   4.608  0.4783  0.6463 -1.5823
   25POPC  H11S 3285   1.666   6.154   4.536 -1.0162 -1.1173 -0.6662
   25POPC  C212 3286   1.757   5.962   4.506  0.6343 -0.6465 -0.0850
   25POPC  H12R 3287   1.664   5.904   4.489  0.8105 -0.5218 -1.5808
   25POPC  H12S 3288   1.830   5.893   4.554 -1.0164 -0.4046  3.0304
   25POPC  C213 3289   1.801   6.003   4.365 -0.0629  0.3713  0.4319
   25POPC  H13R 3290   1.900   6.048   4.387  0.9991 -1.2547 -0.7818
   25POPC  H13S 3291   1.725   6.078   4.334 -0.4923 -1.1262 -2.4999
   25POPC  C214 3292   1.801   5.899   4.260 -0.0923 -0.0806  0.5990
   25POPC  H14R 3293   1.715   5.833   4.285 -0.2185 -0.0118  0.3553
   25POPC  H14S 3294   1.901   5.851   4.269  0.1699  0.1811 -0.6322
   25POPC  C215 3295   1.795   5.957   4.120  0.6733  0.7447 -0.5762
   25POPC  H15R 3296   1.863   6.044   4.111 -0.9603  2.3546  1.3870
   25POPC  H15S 3297   1.697   6.006   4.100  0.3417  0.6872  0.7686
   25POPC  C216 3298   1.831   5.849   4.015 -0.0889 -0.0713  0.0272
   25POPC  H16R 3299   1.747   5.777   4.031 -0.4925  0.4292  0.2065
   25POPC  H16S 3300   1.926   5.804   4.052 -0.2004  1.2129  2.0536
   25POPC  C217 3301   1.831   5.908   3.877 -0.0608 -0.0018  0.4197
   25POPC  H17R 3302   1.914   5.981   3.869  0.5343 -0.7685 -0.6649
   25POPC  H17S 3303   1.737   5.967   3.869 -1.7019 -2.5430 -0.0417
   25POPC  C218 3304   1.829   5.822   3.749  0.2269  0.3664 -0.4387
   25POPC  H18R 3305   1.794   5.877   3.659  0.6672 -0.6407 -1.2405
   25POPC  H18S 3306   1.762   5.734   3.756 -0.5288  0.9030 -0.7027
   25POPC  H18T 3307   1.931   5.789   3.720  0.2463 -1.7435  1.7439
   25POPC   C33 3308   2.403   6.127   5.271 -0.3973 -0.1259  0.0061
   25POPC   H3X 3309   2.418   6.017   5.264 -1.4490 -0.2179 -1.2135
   25POPC   H3Y 3310   2.480   6.171   5.338  0.0608 -0.1743 -0.4721
   25POPC   C34 3311   2.413   6.199   5.135  0.1904 -0.5603  0.1689
   25POPC   H4X 3312   2.369   6.299   5.158  1.6228  0.6933 -2.1463
   25POPC   H4Y 3313   2.344   6.148   5.064  1.3161  1.6863 -2.7321
   25POPC   C35 3314   2.556   6.231   5.085  0.1971  0.4472  0.4812
   25POPC   H5X 3315   2.610   6.135   5.076 -1.7493 -0.5805 -0.8728
   25POPC   H5Y 3316   2.612   6.290   5.160 -0.5631  2.5594 -0.5305
   25POPC   C36 3317   2.565   6.321   4.955  0.4481 -0.2560  0.4983
   25POPC   H6X 3318   2.472   6.381   4.948  0.3212 -0.5152 -0.1216
   25POPC   H6Y 3319   2.573   6.248   4.871  1.0966 -0.3147  0.6068
   25POPC   C37 3320   2.687   6.421   4.950  0.6414 -1.0017  0.1034
   25POPC   H7X 3321   2.787   6.374   4.947  1.4546  0.3679  2.7902
   25POPC   H7Y 3322   2.682   6.483   5.042  0.1484 -0.6760 -0.1387
   25POPC   C38 3323   2.672   6.525   4.833  0.3888  0.0688  0.5729
   25POPC   H8X 3324   2.583   6.587   4.858 -1.2186 -1.5498 -0.8491
   25POPC   H8Y 3325   2.644   6.466   4.743  0.8234 -2.5295  2.0376
   25POPC   C39 3326   2.783   6.622   4.793  0.3026 -0.8415 -0.6302
   25POPC   H9X 3327   2.867   6.557   4.760  2.0437  0.1019  1.7040
   25POPC   H9Y 3328   2.821   6.682   4.878  0.1595 -1.8277  0.1458
   25POPC  C310 3329   2.734   6.722   4.690 -0.4372  0.1238  0.1285
   25POPC  H10X 3330   2.645   6.775   4.731 -1.6342 -2.3899  0.9421
   25POPC  H10Y 3331   2.708   6.647   4.613  1.6780 -0.4305 -0.1101
   25POPC  C311 3332   2.847   6.813   4.638 -0.3582  0.9440 -0.5734
   25POPC  H11X 3333   2.936   6.751   4.615  1.6415  3.2430  0.4879
   25POPC  H11Y 3334   2.877   6.869   4.729 -0.0474 -0.8989  0.5132
   25POPC  C312 3335   2.805   6.907   4.526  0.9543  0.2168 -0.4412
   25POPC  H12X 3336   2.733   6.980   4.569 -4.4149 -4.5497 -0.1737
   25POPC  H12Y 3337   2.753   6.848   4.448  2.0941 -1.8783  0.2799
   25POPC  C313 3338   2.912   6.981   4.447  0.1767 -0.6525  0.5273
   25POPC  H13X 3339   2.993   6.904   4.443 -0.6241 -1.6147  1.8418
   25POPC  H13Y 3340   2.954   7.068   4.502 -2.9977  1.5024 -0.2109
   25POPC  C314 3341   2.872   7.000   4.305 -0.3646  0.1558  0.2346
   25POPC  H14X 3342   2.784   7.067   4.300 -0.5357  0.1386  2.0788
   25POPC  H14Y 3343   2.829   6.906   4.266  1.4825 -1.4938  1.9460
   25POPC  C315 3344   2.981   7.070   4.220  0.0116 -0.4610 -0.1803
   25POPC  H15X 3345   3.075   7.013   4.229  0.1923  0.1387  2.4108
   25POPC  H15Y 3346   2.992   7.174   4.257  1.0429 -0.1981 -1.1755
   25POPC  C316 3347   2.928   7.079   4.075 -0.9191 -0.0799 -0.1496
   25POPC  H16X 3348   2.994   7.129   4.001 -1.5463  0.3650 -0.4223
   25POPC  H16Y 3349   2.829   7.129   4.065 -1.4350 -0.5116  2.1566
   25POPC  H16Z 3350   2.927   6.977   4.031  0.7659  0.5266 -1.7239
   26POPC     N 3351   7.355   4.424   6.102  0.5274 -0.1173  0.2536
   26POPC   C12 3352   7.226   4.493   6.143 -0.1450 -0.0105 -0.2357
   26POPC  H12A 3353   7.188   4.452   6.236 -2.4093 -0.3618 -1.2479
   26POPC  H12B 3354   7.143   4.470   6.078 -1.8805  0.0897  1.8216
   26POPC   C13 3355   7.338   4.277   6.088  0.0590 -0.4668 -0.4375
   26POPC  H13A 3356   7.427   4.234   6.045  1.4294  1.3464  0.4341
   26POPC  H13B 3357   7.334   4.232   6.186 -0.2003 -0.5578 -0.4900
   26POPC  H13C 3358   7.243   4.251   6.045 -1.0657  1.1877  0.8906
   26POPC   C14 3359   7.390   4.472   5.968  0.2268  0.2731  0.6033
   26POPC  H14A 3360   7.481   4.421   5.939 -0.1403 -1.7151  2.6044
   26POPC  H14B 3361   7.319   4.454   5.888  2.4007 -1.3436 -1.0911
   26POPC  H14C 3362   7.407   4.578   5.964 -0.9431  0.4879  1.0685
   26POPC   C15 3363   7.474   4.445   6.186  0.1498  0.5118  0.1519
   26POPC  H15A 3364   7.452   4.404   6.283 -0.6049 -1.8352 -0.9372
   26POPC  H15B 3365   7.500   4.549   6.195  1.3500  0.0968  1.9152
   26POPC  H15C 3366   7.560   4.390   6.151  0.2759  1.0020 -0.3226
   26POPC   C11 3367   7.222   4.646   6.175 -0.6356 -0.0169  0.1198
   26POPC  H11A 3368   7.296   4.672   6.254 -0.1802  0.6387 -0.5104
   26POPC  H11B 3369   7.122   4.674   6.216 -0.5237 -0.7182  0.8838
   26POPC     P 3370   7.135   4.770   5.968  0.0432  0.1443  0.2790
   26POPC   O13 3371   7.056   4.864   6.048 -0.0365  0.2055  0.1545
   26POPC   O14 3372   7.072   4.650   5.912  0.0040 -0.3009 -0.3239
   26POPC   O12 3373   7.257   4.722   6.055  0.2089  0.4469 -0.1044
   26POPC   O11 3374   7.204   4.858   5.854 -0.3860 -0.3213  0.1190
   26POPC    C1 3375   7.329   4.823   5.797 -0.1900  0.0718 -0.1321
   26POPC    HA 3376   7.347   4.715   5.773  0.3522  0.0256  0.4742
   26POPC    HB 3377   7.408   4.863   5.863  1.7018 -1.3773 -1.3962
   26POPC    C2 3378   7.352   4.901   5.656  0.4340 -0.0865  0.0342
   26POPC    HS 3379   7.270   4.867   5.588 -0.3988  1.4157  0.2493
   26POPC   O21 3380   7.482   4.879   5.606  0.3251  0.0075  0.0604
   26POPC   C21 3381   7.498   4.790   5.509 -0.0784 -0.6245  0.1105
   26POPC   O22 3382   7.409   4.720   5.459 -0.3644  0.2809 -0.1464
   26POPC   C22 3383   7.642   4.811   5.450  0.6979 -0.5400  0.2239
   26POPC   H2R 3384   7.712   4.789   5.534 -0.1238 -2.8141  0.3929
   26POPC   H2S 3385   7.640   4.917   5.417 -0.3459 -0.5754  0.1492
   26POPC    C3 3386   7.331   5.052   5.678 -0.7860 -0.4424 -0.5105
   26POPC    HX 3387   7.394   5.091   5.761 -1.1475 -0.9477  0.0109
   26POPC    HY 3388   7.227   5.064   5.716  0.1290  1.7355  1.5335
   26POPC   O31 3389   7.340   5.131   5.559  0.2098 -0.5757  0.0638
   26POPC   C31 3390   7.461   5.171   5.525 -0.5134  0.3677  0.3569
   26POPC   O32 3391   7.565   5.171   5.590  0.7079 -0.1669 -0.3306
   26POPC   C32 3392   7.443   5.229   5.379 -0.8112  0.6687 -0.1529
   26POPC   H2X 3393   7.427   5.338   5.388 -2.5041  0.3134  2.2407
   26POPC   H2Y 3394   7.353   5.185   5.332 -1.3399 -0.0408  1.4347
   26POPC   C23 3395   7.672   4.718   5.338  1.0023 -0.1460  0.5263
   26POPC   H3R 3396   7.755   4.760   5.277  1.7028  1.8946  2.7472
   26POPC   H3S 3397   7.590   4.715   5.263  0.7389  1.0188  0.7557
   26POPC   C24 3398   7.735   4.589   5.378  0.3983  0.3189 -1.0475
   26POPC   H4R 3399   7.720   4.575   5.487 -1.4463  0.1003 -1.2998
   26POPC   H4S 3400   7.844   4.583   5.360  0.3548 -0.6309 -1.0254
   26POPC   C25 3401   7.662   4.466   5.319 -0.6849  0.0688 -0.6186
   26POPC   H5R 3402   7.697   4.465   5.214  2.2708 -2.8068  0.2325
   26POPC   H5S 3403   7.551   4.466   5.326 -0.6856  0.7692 -0.5778
   26POPC   C26 3404   7.723   4.335   5.379  0.3562 -0.2978  0.1306
   26POPC   H6R 3405   7.680   4.329   5.481  1.8196  1.0342  0.8495
   26POPC   H6S 3406   7.833   4.351   5.375  0.2505  0.2377 -1.0622
   26POPC   C27 3407   7.687   4.208   5.306  0.3631 -0.2382  0.3133
   26POPC   H7R 3408   7.577   4.195   5.302  0.2227  1.0368 -1.0439
   26POPC   H7S 3409   7.734   4.121   5.356  0.0184 -1.0794 -0.7946
   26POPC   C28 3410   7.721   4.208   5.156 -0.0729  0.9888 -0.7314
   26POPC   H8R 3411   7.661   4.289   5.110 -1.1311 -0.2251 -1.5741
   26POPC   H8S 3412   7.693   4.113   5.104  1.7519  0.3208 -0.5636
   26POPC   C29 3413   7.870   4.224   5.124  0.4637  0.0589 -0.1661
   26POPC   H91 3414   7.937   4.147   5.164  1.0147 -1.0336 -2.9937
   26POPC  C210 3415   7.925   4.310   5.033  0.1582  0.1060  0.0979
   26POPC  H101 3416   8.033   4.326   5.021  0.6895 -2.4994  0.7316
   26POPC  C211 3417   7.847   4.414   4.960 -0.0169 -0.4564  1.1350
   26POPC  H11R 3418   7.919   4.480   4.908 -0.0512 -0.8634  0.5560
   26POPC  H11S 3419   7.780   4.469   5.030 -2.2742 -1.0826 -0.4240
   26POPC  C212 3420   7.770   4.364   4.838  0.0747 -0.0431  0.1575
   26POPC  H12R 3421   7.727   4.447   4.778 -0.9807  0.1736  1.1795
   26POPC  H12S 3422   7.688   4.301   4.879  1.3496 -0.6026  1.9764
   26POPC  C213 3423   7.853   4.279   4.745  0.5452 -0.0761  0.1835
   26POPC  H13R 3424   7.891   4.196   4.809 -2.0221  0.7939  3.1018
   26POPC  H13S 3425   7.931   4.346   4.703 -1.5388  1.4452 -1.5089
   26POPC  C214 3426   7.768   4.210   4.639 -0.5501  0.2173  0.7885
   26POPC  H14R 3427   7.661   4.199   4.669 -0.7621  0.8665  0.2878
   26POPC  H14S 3428   7.809   4.108   4.626 -0.3089  0.2915  0.9676
   26POPC  C215 3429   7.773   4.271   4.501 -0.4694 -0.5431 -1.0277
   26POPC  H15R 3430   7.880   4.285   4.474  0.6897 -2.7626  1.9283
   26POPC  H15S 3431   7.724   4.369   4.520 -0.4995 -0.6581 -0.4940
   26POPC  C216 3432   7.706   4.177   4.392  0.5194 -0.9716 -0.8526
   26POPC  H16R 3433   7.613   4.136   4.436  1.6358 -0.5648  2.1698
   26POPC  H16S 3434   7.779   4.098   4.364 -0.1285 -1.3653 -1.4618
   26POPC  C217 3435   7.679   4.253   4.265 -0.8574 -0.5465 -0.8544
   26POPC  H17R 3436   7.778   4.259   4.215 -0.2960  1.4351  0.3607
   26POPC  H17S 3437   7.652   4.357   4.295  1.6753 -0.2812  0.7875
   26POPC  C218 3438   7.573   4.202   4.167 -0.3900  0.2209 -0.5020
   26POPC  H18R 3439   7.471   4.197   4.212 -0.4748 -3.0041 -0.8106
   26POPC  H18S 3440   7.599   4.099   4.135  0.2183  0.7508 -1.7992
   26POPC  H18T 3441   7.569   4.270   4.079 -0.0733  0.6173 -0.2182
   26POPC   C33 3442   7.559   5.194   5.283 -0.1909  0.4071  0.2685
   26POPC   H3X 3443   7.570   5.084   5.267 -1.5416 -0.0281  2.0242
   26POPC   H3Y 3444   7.659   5.230   5.317  0.4424 -1.2340  0.2421
   26POPC   C34 3445   7.538   5.247   5.143 -0.1658  0.3689  0.0878
   26POPC   H4X 3446   7.535   5.358   5.140 -4.0803  0.3419 -1.4454
   26POPC   H4Y 3447   7.440   5.210   5.106  0.6586 -1.8835  0.0000
   26POPC   C35 3448   7.643   5.201   5.042 -0.1313  0.5028  0.2027
   26POPC   H5X 3449   7.623   5.093   5.028  0.5282  0.2831  0.9153
   26POPC   H5Y 3450   7.745   5.215   5.084 -0.4553  0.7492  0.9234
   26POPC   C36 3451   7.635   5.261   4.907 -0.1616  0.1960  0.2276
   26POPC   H6X 3452   7.671   5.366   4.896  0.3258 -0.1399 -1.8323
   26POPC   H6Y 3453   7.528   5.275   4.882 -0.3673  0.8937  1.4010
   26POPC   C37 3454   7.712   5.178   4.811  0.2510  0.6771  0.3685
   26POPC   H7X 3455   7.670   5.080   4.780 -0.3099  0.8798  0.4710
   26POPC   H7Y 3456   7.820   5.166   4.832  0.4435  0.1973 -0.8055
   26POPC   C38 3457   7.727   5.253   4.673  0.4022 -0.0089 -0.4309
   26POPC   H8X 3458   7.765   5.357   4.679 -0.2518  0.1999  0.3188
   26POPC   H8Y 3459   7.626   5.273   4.632  1.2980 -0.0666 -2.8186
   26POPC   C39 3460   7.801   5.179   4.558  0.2869 -0.7431  0.1113
   26POPC   H9X 3461   7.764   5.075   4.549 -0.9551 -0.4489  1.5047
   26POPC   H9Y 3462   7.908   5.180   4.589  0.4245  1.0897 -0.3195
   26POPC  C310 3463   7.785   5.247   4.423  0.1059  0.5751 -0.1420
   26POPC  H10X 3464   7.820   5.351   4.439  2.1770 -0.0772 -0.1826
   26POPC  H10Y 3465   7.677   5.257   4.397  0.3660 -0.0193 -1.5837
   26POPC  C311 3466   7.870   5.181   4.312  0.4055  0.4581  0.3384
   26POPC  H11X 3467   7.935   5.114   4.373 -1.1524  0.4116  2.0341
   26POPC  H11Y 3468   7.930   5.259   4.260 -0.0004  0.7842  0.3542
   26POPC  C312 3469   7.781   5.102   4.211 -0.2611 -0.1475  0.1108
   26POPC  H12X 3470   7.705   5.166   4.161  1.2162  0.9315 -0.8518
   26POPC  H12Y 3471   7.738   5.020   4.271  1.5724 -0.3718  1.1925
   26POPC  C313 3472   7.867   5.039   4.093 -0.3903  0.2819  0.1470
   26POPC  H13X 3473   7.802   4.964   4.043  0.0516  0.4102 -0.6422
   26POPC  H13Y 3474   7.958   4.981   4.120  0.3635  1.9303  1.3332
   26POPC  C314 3475   7.920   5.139   3.987  0.1531  0.5707  0.2150
   26POPC  H14X 3476   8.014   5.182   4.027  0.6827 -1.7285  1.6421
   26POPC  H14Y 3477   7.836   5.212   3.985 -0.6749 -0.3539  0.1423
   26POPC  C315 3478   7.929   5.071   3.848  0.4618  0.3517  0.9896
   26POPC  H15X 3479   7.977   5.136   3.771 -1.8483 -0.3422 -1.1662
   26POPC  H15Y 3480   7.824   5.055   3.818 -0.0529  0.4053  2.6898
   26POPC  C316 3481   8.009   4.942   3.848  0.3878  0.7635 -0.3114
   26POPC  H16X 3482   8.028   4.895   3.749 -1.1998 -0.9251  0.1296
   26POPC  H16Y 3483   7.953   4.867   3.908 -0.1333  1.1872 -0.2667
   26POPC  H16Z 3484   8.110   4.951   3.893  0.6038  0.3514 -0.7022
   27POPC     N 3485   4.326   0.471   5.640  0.0647 -0.3979 -0.1841
   27POPC   C12 3486   4.219   0.519   5.540 -0.4235  0.2181 -1.0388
   27POPC  H12A 3487   4.197   0.439   5.470 -3.1206 -0.0608  0.0223
   27POPC  H12B 3488   4.254   0.604   5.484  1.4045 -0.7380 -1.4400
   27POPC   C13 3489   4.260   0.382   5.745  0.3880 -0.3547  0.0860
   27POPC  H13A 3490   4.206   0.298   5.705  0.7081 -0.7157  0.4077
   27POPC  H13B 3491   4.322   0.341   5.823 -0.7545 -0.8092  0.7582
   27POPC  H13C 3492   4.183   0.437   5.796 -0.2012 -1.0631 -0.0252
   27POPC   C14 3493   4.429   0.391   5.582 -0.1230 -0.0431  0.4107
   27POPC  H14A 3494   4.470   0.426   5.489  0.5661 -1.0560  0.3136
   27POPC  H14B 3495   4.505   0.381   5.659 -1.0152 -1.2692  1.1771
   27POPC  H14C 3496   4.398   0.289   5.564  0.1968 -0.2471  0.9507
   27POPC   C15 3497   4.393   0.592   5.706 -0.1945  0.2482  0.0729
   27POPC  H15A 3498   4.322   0.653   5.759 -0.2014 -0.0357  0.3903
   27POPC  H15B 3499   4.436   0.658   5.632 -0.9103  2.3337  1.4276
   27POPC  H15C 3500   4.464   0.553   5.777  1.2566  0.1608 -1.3739
   27POPC   C11 3501   4.084   0.567   5.594 -0.5704  0.3139  0.3348
   27POPC  H11A 3502   4.041   0.470   5.629 -0.0663 -0.1158 -0.2018
   27POPC  H11B 3503   4.009   0.588   5.515  0.2009 -2.6306 -1.3624
   27POPC     P 3504   4.120   0.821   5.606  0.3057 -0.1198 -0.0879
   27POPC   O13 3505   4.223   0.898   5.685  0.5651  0.0214  0.7345
   27POPC   O14 3506   3.983   0.871   5.608 -0.4605  0.2490 -0.1759
   27POPC   O12 3507   4.113   0.678   5.680  0.2852  0.1587 -0.2622
   27POPC   O11 3508   4.167   0.786   5.462 -0.6195 -0.1795  0.6619
   27POPC    C1 3509   4.106   0.830   5.344  0.1125  0.0744 -0.4274
   27POPC    HA 3510   4.083   0.937   5.359  0.8625  0.5256 -2.2188
   27POPC    HB 3511   4.016   0.767   5.328  0.0790  0.1185 -0.4125
   27POPC    C2 3512   4.195   0.819   5.219  0.8024 -0.8656 -0.2025
   27POPC    HS 3513   4.205   0.710   5.195  0.1639 -1.4723  2.0650
   27POPC   O21 3514   4.319   0.885   5.247 -0.4031 -0.1680  0.1080
   27POPC   C21 3515   4.418   0.835   5.165  0.4266  0.4675 -0.0128
   27POPC   O22 3516   4.409   0.733   5.098 -0.6474  0.1198 -0.4615
   27POPC   C22 3517   4.532   0.935   5.163 -0.3224  0.0835 -0.0405
   27POPC   H2R 3518   4.607   0.894   5.235  0.2738 -0.5194 -0.9890
   27POPC   H2S 3519   4.502   1.034   5.203 -2.4097 -1.3609  2.2769
   27POPC    C3 3520   4.109   0.890   5.112 -0.1916  0.1617  0.5022
   27POPC    HX 3521   4.113   0.998   5.140  2.2292  1.5627 -4.1720
   27POPC    HY 3522   4.006   0.849   5.119  0.1595 -0.6190  1.3323
   27POPC   O31 3523   4.155   0.877   4.973  0.0542  0.4295  0.1389
   27POPC   C31 3524   4.152   0.760   4.924  0.0088 -0.5275 -0.0878
   27POPC   O32 3525   4.101   0.663   4.975  0.0862  0.0636  0.0726
   27POPC   C32 3526   4.240   0.746   4.800 -0.0986  0.2592  0.5977
   27POPC   H2X 3527   4.341   0.792   4.801  0.5908 -1.0330 -1.6518
   27POPC   H2Y 3528   4.179   0.795   4.721 -1.2892 -0.4939  1.0171
   27POPC   C23 3529   4.599   0.961   5.021 -0.2996  0.4824 -0.1205
   27POPC   H3R 3530   4.526   0.983   4.941  0.0128  2.3069  0.0382
   27POPC   H3S 3531   4.650   0.867   4.991  1.6505  0.8157  1.8733
   27POPC   C24 3532   4.708   1.066   5.020 -0.0102 -0.4902 -0.1466
   27POPC   H4R 3533   4.782   1.049   5.102  1.3013 -3.9820 -1.8655
   27POPC   H4S 3534   4.654   1.163   5.032  0.2070 -0.2897 -0.7509
   27POPC   C25 3535   4.807   1.067   4.896  0.4886  0.1655 -0.1851
   27POPC   H5R 3536   4.752   1.077   4.800 -0.8850  2.3642  0.7408
   27POPC   H5S 3537   4.842   0.962   4.899 -0.3424 -0.0940  1.7955
   27POPC   C26 3538   4.904   1.184   4.889 -0.6310  0.6123 -0.0651
   27POPC   H6R 3539   4.975   1.194   4.974  2.1375  0.5735 -2.2368
   27POPC   H6S 3540   4.837   1.272   4.880 -2.2811 -0.6065 -0.0525
   27POPC   C27 3541   4.999   1.173   4.765  0.2320  1.1626 -0.0528
   27POPC   H7R 3542   4.937   1.155   4.675  1.5401  0.5856 -0.8584
   27POPC   H7S 3543   5.061   1.081   4.764  0.5097  1.2114  2.9219
   27POPC   C28 3544   5.089   1.287   4.743 -0.1418  0.2940  0.3933
   27POPC   H8R 3545   5.052   1.392   4.747 -0.5626  0.3759 -2.8732
   27POPC   H8S 3546   5.117   1.284   4.636 -0.8595  2.1966  0.1189
   27POPC   C29 3547   5.223   1.276   4.824  1.0405  0.4670  0.5431
   27POPC   H91 3548   5.302   1.209   4.787 -0.4474 -0.8252 -0.3789
   27POPC  C210 3549   5.260   1.354   4.926 -0.4509 -1.0123  0.3220
   27POPC  H101 3550   5.354   1.339   4.983 -1.3610 -0.1740  2.1446
   27POPC  C211 3551   5.173   1.462   4.991 -0.0336  0.3296 -0.4743
   27POPC  H11R 3552   5.074   1.478   4.944  0.1044  0.7937 -0.6093
   27POPC  H11S 3553   5.235   1.554   4.995  0.1638  0.1571  0.6717
   27POPC  C212 3554   5.130   1.394   5.132  0.2329 -0.4360  0.5728
   27POPC  H12R 3555   5.227   1.359   5.174 -0.9751 -0.6571  3.4498
   27POPC  H12S 3556   5.056   1.312   5.122 -0.8945  0.7535 -1.2448
   27POPC  C213 3557   5.078   1.503   5.232 -0.4410  0.3702  0.1350
   27POPC  H13R 3558   4.982   1.555   5.209 -0.3959 -0.5260 -2.3819
   27POPC  H13S 3559   5.160   1.577   5.228  0.6175 -0.8049 -2.7973
   27POPC  C214 3560   5.060   1.441   5.374 -0.5124  0.2648 -0.1381
   27POPC  H14R 3561   5.028   1.525   5.438  0.0985  0.3553  0.0557
   27POPC  H14S 3562   5.157   1.409   5.418 -0.0392  0.8002 -0.7782
   27POPC  C215 3563   4.954   1.334   5.372 -0.7444  0.4931  0.2510
   27POPC  H15R 3564   4.975   1.251   5.301 -1.4894 -2.0402  2.7759
   27POPC  H15S 3565   4.861   1.379   5.333 -1.2132  1.0324  1.9148
   27POPC  C216 3566   4.936   1.265   5.504  0.6465 -0.0535 -0.6784
   27POPC  H16R 3567   4.922   1.337   5.587  2.8690  1.1372 -1.2640
   27POPC  H16S 3568   5.022   1.205   5.539  1.2478  2.4019  2.5255
   27POPC  C217 3569   4.804   1.178   5.509 -0.2774  0.6000 -0.3990
   27POPC  H17R 3570   4.799   1.135   5.611 -0.5636 -0.1711 -0.7286
   27POPC  H17S 3571   4.815   1.089   5.444  0.1039  0.4213 -0.0974
   27POPC  C218 3572   4.668   1.253   5.477  0.0369 -0.6052  0.0724
   27POPC  H18R 3573   4.675   1.326   5.394 -1.0264  1.5870  1.7932
   27POPC  H18S 3574   4.641   1.320   5.562 -0.4856  0.6669 -1.0592
   27POPC  H18T 3575   4.591   1.174   5.461 -0.0562 -0.7985  1.3411
   27POPC   C33 3576   4.273   0.601   4.753  0.0598 -0.2748 -0.1279
   27POPC   H3X 3577   4.179   0.542   4.746 -0.3287  0.3161  0.0800
   27POPC   H3Y 3578   4.333   0.546   4.829 -0.1793 -0.2313  0.0954
   27POPC   C34 3579   4.342   0.599   4.620  0.3409  0.1053  0.2390
   27POPC   H4X 3580   4.445   0.639   4.615  1.5796 -2.7814  0.8303
   27POPC   H4Y 3581   4.268   0.651   4.555 -1.1939 -0.9292  1.0891
   27POPC   C35 3582   4.349   0.448   4.576  0.2853 -0.2904 -0.6998
   27POPC   H5X 3583   4.248   0.406   4.560  0.2363 -0.3429 -0.2740
   27POPC   H5Y 3584   4.400   0.398   4.662 -0.7974 -0.1597  0.0342
   27POPC   C36 3585   4.417   0.413   4.449  0.5346  0.1321 -0.3032
   27POPC   H6X 3586   4.472   0.502   4.413 -1.5240  0.7495 -2.1417
   27POPC   H6Y 3587   4.337   0.407   4.372  0.2835 -1.9271  0.0591
   27POPC   C37 3588   4.490   0.283   4.454 -0.2727 -0.0024 -0.1169
   27POPC   H7X 3589   4.431   0.196   4.489  0.8390 -0.5245  0.5269
   27POPC   H7Y 3590   4.585   0.292   4.512  1.1896  2.3005 -2.6085
   27POPC   C38 3591   4.533   0.257   4.306  0.0092 -0.2771 -0.2424
   27POPC   H8X 3592   4.599   0.338   4.267 -0.1746 -0.3601 -0.7327
   27POPC   H8Y 3593   4.438   0.252   4.249  0.2115 -1.4738 -0.5048
   27POPC   C39 3594   4.606   0.126   4.273 -0.1194  0.2103  0.1328
   27POPC   H9X 3595   4.556   0.033   4.309  1.8049 -1.3579 -1.0593
   27POPC   H9Y 3596   4.702   0.122   4.329 -0.7991  1.3819  1.4534
   27POPC  C310 3597   4.634   0.097   4.122  0.2028  0.5014  0.6216
   27POPC  H10X 3598   4.672  -0.007   4.111 -1.0663 -0.1052  1.6365
   27POPC  H10Y 3599   4.703   0.176   4.086 -0.5633  0.4649 -1.0327
   27POPC  C311 3600   4.503   0.096   4.032  0.4516  0.7024  0.8845
   27POPC  H11X 3601   4.462   0.198   4.016 -0.0960  0.7246  2.2579
   27POPC  H11Y 3602   4.426   0.039   4.089 -0.7900  0.1898 -1.1771
   27POPC  C312 3603   4.523   0.029   3.895 -0.5942  0.0796 -0.1344
   27POPC  H12X 3604   4.571  -0.068   3.920 -0.8986 -0.4183 -1.3871
   27POPC  H12Y 3605   4.599   0.085   3.836  0.5947 -1.4166 -0.0617
   27POPC  C313 3606   4.392   0.004   3.816 -0.1931 -0.2921 -1.1309
   27POPC  H13X 3607   4.315   0.060   3.872 -0.0610 -1.0455 -0.1827
   27POPC  H13Y 3608   4.380  -0.106   3.802 -0.8595 -0.4187  0.3307
   27POPC  C314 3609   4.377   0.065   3.676 -0.4328 -0.3912  0.2940
   27POPC  H14X 3610   4.351   0.173   3.672  1.4534  0.0545 -2.2470
   27POPC  H14Y 3611   4.287   0.016   3.633 -0.6317 -1.5281  1.8739
   27POPC  C315 3612   4.496   0.033   3.577  0.1738  0.7763 -0.3380
   27POPC  H15X 3613   4.590   0.072   3.620 -0.4626 -0.2720  2.1666
   27POPC  H15Y 3614   4.473   0.075   3.476  1.0067  1.8978 -0.0808
   27POPC  C316 3615   4.517  -0.126   3.560  0.4274  0.1262 -0.0664
   27POPC  H16X 3616   4.418  -0.169   3.533 -1.5296  4.0089  0.2148
   27POPC  H16Y 3617   4.551  -0.167   3.658 -0.0140 -1.9460 -0.7265
   27POPC  H16Z 3618   4.602  -0.139   3.490 -0.2025 -1.0940 -0.6344
   28POPC     N 3619   4.620   6.003   5.958  0.1910 -0.2009  0.5174
   28POPC   C12 3620   4.646   5.959   5.821  0.4250  0.5610  0.1153
   28POPC  H12A 3621   4.648   5.851   5.820 -1.3113  0.5010  0.4569
   28POPC  H12B 3622   4.744   5.990   5.789 -0.2013  1.7990 -0.6613
   28POPC   C13 3623   4.619   6.148   5.976  0.4777 -0.0347 -0.2924
   28POPC  H13A 3624   4.531   6.187   5.927  0.9862  3.2616  1.1678
   28POPC  H13B 3625   4.618   6.167   6.082 -1.0219  1.1232 -0.4748
   28POPC  H13C 3626   4.706   6.198   5.935  0.1703 -0.9628 -2.1797
   28POPC   C14 3627   4.490   5.946   5.999 -0.1372  0.6340 -0.3348
   28POPC  H14A 3628   4.482   5.974   6.103  1.6869 -1.1052  0.3565
   28POPC  H14B 3629   4.406   5.977   5.939 -0.3786 -0.5362 -0.6390
   28POPC  H14C 3630   4.485   5.838   6.002 -1.9664  0.7154  1.6811
   28POPC   C15 3631   4.718   5.931   6.049 -0.7363  0.2623 -0.0341
   28POPC  H15A 3632   4.819   5.961   6.025 -0.6358  1.9583  2.2027
   28POPC  H15B 3633   4.698   5.825   6.046  0.4522  0.0142 -3.1300
   28POPC  H15C 3634   4.715   5.953   6.155  0.9426 -1.7271  0.5213
   28POPC   C11 3635   4.556   5.995   5.702 -0.0980  0.5325  0.3635
   28POPC  H11A 3636   4.591   5.945   5.610 -2.2016  1.0950 -0.8112
   28POPC  H11B 3637   4.571   6.101   5.672  1.6875  0.3948  0.6319
   28POPC     P 3638   4.344   5.843   5.659 -0.5271  0.2169  0.5921
   28POPC   O13 3639   4.206   5.849   5.712  0.0085  0.6826 -0.3106
   28POPC   O14 3640   4.423   5.712   5.678  0.4004  0.4796  0.2815
   28POPC   O12 3641   4.418   5.973   5.719  0.2485  0.1782 -0.3611
   28POPC   O11 3642   4.344   5.878   5.504 -0.2936  0.7416  0.3052
   28POPC    C1 3643   4.315   5.996   5.442  0.1661  0.5813  0.2761
   28POPC    HA 3644   4.311   6.082   5.511 -1.5722  1.0761 -0.3755
   28POPC    HB 3645   4.211   5.988   5.403  0.2920 -2.5775  0.3617
   28POPC    C2 3646   4.423   6.012   5.327  0.3742  0.0532  0.6303
   28POPC    HS 3647   4.454   5.912   5.291  2.1463  0.5788  0.6188
   28POPC   O21 3648   4.529   6.074   5.397 -0.2903  0.7915  0.1413
   28POPC   C21 3649   4.641   6.082   5.322 -0.1040 -0.4036  0.1798
   28POPC   O22 3650   4.656   6.024   5.216  0.1588  0.3296  0.1962
   28POPC   C22 3651   4.750   6.162   5.396  0.2073  0.6712 -0.9627
   28POPC   H2R 3652   4.839   6.096   5.385 -0.6636 -0.7475  0.0785
   28POPC   H2S 3653   4.721   6.149   5.503  1.3925 -0.1591 -0.7218
   28POPC    C3 3654   4.372   6.098   5.206  0.3556  0.1869 -1.1934
   28POPC    HX 3655   4.455   6.124   5.136  0.8075 -0.4689 -0.9063
   28POPC    HY 3656   4.334   6.193   5.249  2.6348  0.3558  0.6455
   28POPC   O31 3657   4.268   6.020   5.138  0.0154  0.2780 -0.3220
   28POPC   C31 3658   4.191   6.103   5.074 -0.5963 -0.5488 -0.2542
   28POPC   O32 3659   4.202   6.222   5.070 -0.1494  0.2766  0.5342
   28POPC   C32 3660   4.089   6.036   4.997 -0.9714  0.1494  0.7008
   28POPC   H2X 3661   3.993   6.053   5.051 -1.3112  1.7363 -0.3487
   28POPC   H2Y 3662   4.128   5.933   4.981  0.5961  0.7711  0.3458
   28POPC   C23 3663   4.774   6.302   5.359 -1.0364 -0.4971 -0.1230
   28POPC   H3R 3664   4.855   6.335   5.427 -1.5732 -0.5356  0.5449
   28POPC   H3S 3665   4.690   6.372   5.378  0.6346  1.4107  0.4429
   28POPC   C24 3666   4.832   6.321   5.220 -0.6593 -0.2244 -0.1982
   28POPC   H4R 3667   4.766   6.297   5.133 -0.7149  2.2317 -0.9370
   28POPC   H4S 3668   4.916   6.249   5.209 -0.3193 -0.1146  1.5039
   28POPC   C25 3669   4.874   6.467   5.187  0.0081  0.3782  0.1566
   28POPC   H5R 3670   4.942   6.497   5.269  0.3194  0.3121 -0.0752
   28POPC   H5S 3671   4.784   6.531   5.196 -0.3503  0.1041 -1.1456
   28POPC   C26 3672   4.937   6.479   5.051 -0.4583 -0.4141 -0.6815
   28POPC   H6R 3673   4.870   6.421   4.983  0.9810 -1.5378 -1.2014
   28POPC   H6S 3674   5.036   6.429   5.040 -0.8277 -1.3721  0.1603
   28POPC   C27 3675   4.943   6.630   5.013 -0.5118 -0.3703 -0.8494
   28POPC   H7R 3676   5.031   6.677   5.062  0.7078  0.7985 -3.8932
   28POPC   H7S 3677   4.849   6.680   5.044 -0.4315 -0.6489 -0.1357
   28POPC   C28 3678   4.968   6.657   4.866 -0.1019 -0.5612  0.5034
   28POPC   H8R 3679   5.028   6.568   4.838  1.5219 -0.2583  2.7360
   28POPC   H8S 3680   5.020   6.753   4.845 -1.0567  0.2849  1.8351
   28POPC   C29 3681   4.843   6.660   4.787 -0.2705 -0.2280 -0.5163
   28POPC   H91 3682   4.760   6.699   4.848 -1.4603 -0.1861 -2.1267
   28POPC  C210 3683   4.822   6.636   4.656 -1.0003 -1.1849  0.6954
   28POPC  H101 3684   4.722   6.647   4.610 -1.2268 -0.4212  1.3466
   28POPC  C211 3685   4.927   6.600   4.558  0.0938  0.9009 -0.4433
   28POPC  H11R 3686   5.026   6.649   4.573  0.0088  0.4797  1.9618
   28POPC  H11S 3687   4.890   6.622   4.456 -1.5836 -2.2157 -0.6325
   28POPC  C212 3688   4.936   6.447   4.556 -0.0547 -0.6054 -0.4478
   28POPC  H12R 3689   4.837   6.406   4.527 -1.0537 -1.6780  3.7787
   28POPC  H12S 3690   4.960   6.410   4.658  2.6902  0.0292 -0.7743
   28POPC  C213 3691   5.049   6.401   4.457 -0.5903  0.7671 -0.8730
   28POPC  H13R 3692   5.146   6.449   4.483 -0.4085  0.5382 -1.1329
   28POPC  H13S 3693   5.019   6.441   4.358 -2.5590 -0.2430 -0.7467
   28POPC  C214 3694   5.053   6.242   4.477 -0.5713 -0.1620  0.5584
   28POPC  H14R 3695   5.106   6.211   4.569  1.5771 -2.5866 -1.3528
   28POPC  H14S 3696   5.118   6.195   4.401  0.3388  2.0155 -0.1017
   28POPC  C215 3697   4.921   6.164   4.462 -0.1376 -0.3512  0.0412
   28POPC  H15R 3698   4.880   6.188   4.362 -1.2591 -2.2322 -0.0137
   28POPC  H15S 3699   4.844   6.199   4.534 -0.8144 -0.7467 -0.4711
   28POPC  C216 3700   4.941   6.011   4.466  0.2826 -0.2681 -0.0148
   28POPC  H16R 3701   4.962   5.982   4.571 -0.4954 -3.1656 -0.5746
   28POPC  H16S 3702   5.032   5.991   4.405 -0.5391  1.7007 -2.0114
   28POPC  C217 3703   4.828   5.923   4.411 -1.3469  0.0195 -0.3742
   28POPC  H17R 3704   4.741   5.916   4.480 -1.7212 -2.2439 -0.9789
   28POPC  H17S 3705   4.874   5.823   4.395  0.0644  0.1537  2.1658
   28POPC  C218 3706   4.771   5.963   4.274  0.0253  0.0147  0.4948
   28POPC  H18R 3707   4.728   6.065   4.286 -1.0983 -0.4035  0.1559
   28POPC  H18S 3708   4.684   5.903   4.241 -0.1788  1.4679 -1.9115
   28POPC  H18T 3709   4.856   5.961   4.202 -0.6254  2.5039 -0.4797
   28POPC   C33 3710   4.078   6.108   4.856 -0.2573  0.1498 -0.3664
   28POPC   H3X 3711   4.172   6.084   4.802 -0.1457  0.6810 -0.4101
   28POPC   H3Y 3712   4.076   6.219   4.857  0.1209  0.1709  1.2537
   28POPC   C34 3713   3.967   6.051   4.769  0.5204  0.2515  0.2979
   28POPC   H4X 3714   3.870   6.046   4.823  0.5245  2.6016  0.6297
   28POPC   H4Y 3715   4.003   5.947   4.754 -0.1136  0.3326 -2.2231
   28POPC   C35 3716   3.951   6.099   4.622  0.1681 -0.3012  0.4002
   28POPC   H5X 3717   4.034   6.066   4.556 -0.4443  1.3691 -1.2893
   28POPC   H5Y 3718   3.952   6.210   4.624  0.0680 -0.2257 -1.7810
   28POPC   C36 3719   3.821   6.057   4.558 -0.2506  0.3495  0.2336
   28POPC   H6X 3720   3.736   6.062   4.629  1.0159  2.1280  1.7234
   28POPC   H6Y 3721   3.841   5.948   4.543 -1.0806  0.2355 -0.1239
   28POPC   C37 3722   3.787   6.132   4.428  0.1379  0.6838 -0.4519
   28POPC   H7X 3723   3.860   6.097   4.352 -0.2414  0.6730 -0.8137
   28POPC   H7Y 3724   3.778   6.243   4.433  0.3949  0.7392 -1.1098
   28POPC   C38 3725   3.660   6.073   4.370 -0.2020 -0.2501  0.0485
   28POPC   H8X 3726   3.567   6.097   4.425  0.3326  4.8085 -0.7698
   28POPC   H8Y 3727   3.682   5.964   4.361  2.9918  0.4094 -1.6733
   28POPC   C39 3728   3.629   6.123   4.227  0.2141 -0.3468  0.4235
   28POPC   H9X 3729   3.701   6.111   4.144 -2.4290 -1.3413 -1.8544
   28POPC   H9Y 3730   3.611   6.233   4.237  3.4694  0.2416  1.2783
   28POPC  C310 3731   3.493   6.068   4.183 -0.2999  0.2541 -0.3038
   28POPC  H10X 3732   3.434   6.011   4.258 -3.3704  2.7665 -0.5953
   28POPC  H10Y 3733   3.529   5.993   4.110  0.4532  0.8014 -0.5110
   28POPC  C311 3734   3.399   6.180   4.124  0.5616  0.0619 -0.3815
   28POPC  H11X 3735   3.430   6.205   4.020 -0.3859 -0.9839 -0.9250
   28POPC  H11Y 3736   3.411   6.267   4.192 -0.7334 -0.9827  1.2607
   28POPC  C312 3737   3.249   6.147   4.135  0.9271 -0.0202  0.8461
   28POPC  H12X 3738   3.216   6.114   4.236 -1.0551  0.2069  0.3068
   28POPC  H12Y 3739   3.228   6.062   4.066 -0.4368  0.1120  1.0837
   28POPC  C313 3740   3.153   6.263   4.086 -0.5612  0.7676 -0.3740
   28POPC  H13X 3741   3.193   6.312   3.994 -1.4339 -0.2703 -1.3429
   28POPC  H13Y 3742   3.155   6.338   4.167 -2.1690  3.4632 -2.6254
   28POPC  C314 3743   3.006   6.212   4.060 -0.5493 -0.1242  0.2743
   28POPC  H14X 3744   2.946   6.305   4.050 -1.1979 -0.2576  2.4571
   28POPC  H14Y 3745   2.960   6.151   4.140 -1.8498 -1.1655 -1.2190
   28POPC  C315 3746   3.000   6.128   3.923 -0.0208 -0.0676 -0.1324
   28POPC  H15X 3747   2.898   6.085   3.928 -1.1051  2.3946  0.6900
   28POPC  H15Y 3748   3.072   6.044   3.934  1.2041  0.5053 -2.9458
   28POPC  C316 3749   3.011   6.201   3.790  0.6484 -0.6202 -0.2136
   28POPC  H16X 3750   2.980   6.152   3.695 -0.1605  2.9120 -1.9444
   28POPC  H16Y 3751   3.115   6.239   3.776  0.3596  0.9421  1.5136
   28POPC  H16Z 3752   2.950   6.294   3.794 -0.7421 -1.5306  0.2284
   29POPC     N 3753   4.089   4.465   5.873 -0.5841  0.0199 -0.4061
   29POPC   C12 3754   4.026   4.605   5.914 -0.0452 -0.8210 -0.3411
   29POPC  H12A 3755   3.979   4.599   6.011  0.5267 -0.7176 -0.0504
   29POPC  H12B 3756   3.953   4.635   5.840  0.5355 -0.4891 -0.7914
   29POPC   C13 3757   3.990   4.352   5.860  0.9728  0.0372 -0.7977
   29POPC  H13A 3758   4.051   4.266   5.883 -1.8057 -1.4115  2.0399
   29POPC  H13B 3759   3.908   4.355   5.930 -1.5757  3.2055 -3.6063
   29POPC  H13C 3760   3.932   4.350   5.769  2.3330 -0.0443 -1.6915
   29POPC   C14 3761   4.156   4.478   5.751  0.2136  0.1388  0.0029
   29POPC  H14A 3762   4.239   4.548   5.756  1.3777 -1.2091  0.0959
   29POPC  H14B 3763   4.203   4.386   5.719 -1.7446 -0.9087  0.0300
   29POPC  H14C 3764   4.083   4.512   5.679  0.4728  0.9176  0.0919
   29POPC   C15 3765   4.196   4.432   5.974 -0.5687  0.1456 -0.2347
   29POPC  H15A 3766   4.158   4.396   6.069 -0.7529  0.9769  0.0157
   29POPC  H15B 3767   4.254   4.521   5.994 -1.4680  0.6228  0.2944
   29POPC  H15C 3768   4.263   4.358   5.931 -0.4154  0.1869 -0.0727
   29POPC   C11 3769   4.116   4.728   5.928 -1.0571  0.1714 -0.1273
   29POPC  H11A 3770   4.208   4.699   5.984 -0.4184 -0.8066 -1.6214
   29POPC  H11B 3771   4.054   4.802   5.982 -2.0571 -0.5990 -0.2046
   29POPC     P 3772   4.225   4.924   5.801  0.0615 -0.4528  0.3615
   29POPC   O13 3773   4.335   4.927   5.897  0.2187  0.8028  0.5356
   29POPC   O14 3774   4.122   5.027   5.819 -0.0176 -0.1538  0.4796
   29POPC   O12 3775   4.161   4.778   5.796 -0.1408 -0.0540 -0.0230
   29POPC   O11 3776   4.290   4.933   5.658  0.1434  0.3549  0.5900
   29POPC    C1 3777   4.323   4.814   5.584 -0.2034  0.5915 -0.3965
   29POPC    HA 3778   4.242   4.739   5.593  0.7424 -0.4230 -0.1498
   29POPC    HB 3779   4.419   4.765   5.612 -0.1246 -1.1883 -3.3587
   29POPC    C2 3780   4.339   4.853   5.437 -0.5003  0.5415 -1.2619
   29POPC    HS 3781   4.410   4.938   5.439  1.6945 -1.2020 -1.5526
   29POPC   O21 3782   4.209   4.889   5.385 -0.5496 -0.5057  0.3033
   29POPC   C21 3783   4.207   4.967   5.280  0.0591  0.3999  0.0509
   29POPC   O22 3784   4.306   5.005   5.213  0.2837  0.0270  0.5470
   29POPC   C22 3785   4.062   5.006   5.239 -0.1053 -0.3612 -0.9667
   29POPC   H2R 3786   4.020   5.069   5.320  0.4211 -0.7490 -0.3873
   29POPC   H2S 3787   4.000   4.915   5.225  0.0353 -0.6904  0.4157
   29POPC    C3 3788   4.399   4.734   5.366 -0.2338  0.9847  0.2531
   29POPC    HX 3789   4.322   4.656   5.387  0.0555  0.0391 -1.9049
   29POPC    HY 3790   4.491   4.696   5.416  0.8887 -0.6317 -2.7772
   29POPC   O31 3791   4.421   4.747   5.224 -0.0139  0.6487 -0.1952
   29POPC   C31 3792   4.530   4.830   5.207  0.1972  0.9544  0.8861
   29POPC   O32 3793   4.602   4.870   5.295  0.2885 -0.2051  0.0666
   29POPC   C32 3794   4.564   4.852   5.059 -0.0482  0.3156  0.4365
   29POPC   H2X 3795   4.465   4.887   5.021 -0.1742 -0.0828  0.3858
   29POPC   H2Y 3796   4.580   4.754   5.010  1.5206  0.3057  0.9227
   29POPC   C23 3797   4.046   5.091   5.104  0.5400  0.7352 -0.4341
   29POPC   H3R 3798   4.140   5.144   5.076  0.8200  1.2035  1.2822
   29POPC   H3S 3799   3.959   5.157   5.125  1.3428  1.0707  2.3039
   29POPC   C24 3800   4.026   4.989   4.989  0.5148 -0.2904  0.4573
   29POPC   H4R 3801   3.996   5.053   4.903 -0.1509  1.0130  1.6253
   29POPC   H4S 3802   3.945   4.915   5.005 -1.9081  1.6871 -1.8498
   29POPC   C25 3803   4.154   4.904   4.948  0.4645 -0.0569  0.2080
   29POPC   H5R 3804   4.163   4.821   5.022  2.2087  0.5277  0.6941
   29POPC   H5S 3805   4.237   4.977   4.953 -0.5280  1.2393 -1.3420
   29POPC   C26 3806   4.144   4.852   4.801 -0.6591  0.0520  0.4168
   29POPC   H6R 3807   4.124   4.941   4.737  1.2037 -0.8641 -1.5666
   29POPC   H6S 3808   4.073   4.767   4.794  0.5414 -0.9067 -0.5561
   29POPC   C27 3809   4.288   4.802   4.750  0.9438  0.0997  0.4541
   29POPC   H7R 3810   4.328   4.742   4.834  0.0455  0.2126  0.9744
   29POPC   H7S 3811   4.356   4.885   4.720 -1.1069  1.5457 -0.4411
   29POPC   C28 3812   4.275   4.713   4.619  0.7368  0.2152  0.0040
   29POPC   H8R 3813   4.250   4.775   4.530 -1.5495  1.0817  1.1773
   29POPC   H8S 3814   4.202   4.630   4.630  0.0508  0.8735  0.4419
   29POPC   C29 3815   4.401   4.649   4.568  0.7913 -0.4963  0.6353
   29POPC   H91 3816   4.487   4.669   4.634  2.2271 -0.9902 -0.9832
   29POPC  C210 3817   4.431   4.615   4.439  0.8194  0.2385 -0.3268
   29POPC  H101 3818   4.536   4.588   4.424  1.5166  1.5761  1.7419
   29POPC  C211 3819   4.341   4.616   4.319  0.2847  0.3536  0.3839
   29POPC  H11R 3820   4.354   4.703   4.251  2.9600 -0.0323  0.2927
   29POPC  H11S 3821   4.235   4.628   4.349  0.1213  0.7542 -0.3320
   29POPC  C212 3822   4.367   4.492   4.229 -0.3195  0.8188  0.3873
   29POPC  H12R 3823   4.362   4.402   4.295 -2.5778  1.1862  0.8023
   29POPC  H12S 3824   4.473   4.494   4.197 -0.4655  0.9721 -0.0991
   29POPC  C213 3825   4.270   4.475   4.109 -0.3933 -0.5313 -0.5869
   29POPC  H13R 3826   4.296   4.553   4.033  2.4812  1.3723  2.1052
   29POPC  H13S 3827   4.160   4.485   4.124 -0.3106  0.0251 -0.3021
   29POPC  C214 3828   4.279   4.333   4.046  0.4312  1.1756  0.7988
   29POPC  H14R 3829   4.249   4.262   4.126  0.9022  0.8357  0.6791
   29POPC  H14S 3830   4.386   4.310   4.027  0.0087 -0.1691 -0.1256
   29POPC  C215 3831   4.208   4.308   3.917 -0.5684 -1.0887  0.5536
   29POPC  H15R 3832   4.220   4.199   3.902 -1.3850 -0.8053 -3.1733
   29POPC  H15S 3833   4.250   4.361   3.828  0.4729 -2.1098  0.4154
   29POPC  C216 3834   4.059   4.349   3.909  0.6209  0.5137 -0.4939
   29POPC  H16R 3835   4.031   4.457   3.914 -3.2059 -0.3259 -0.3208
   29POPC  H16S 3836   3.996   4.309   3.991 -2.0306  1.5693 -1.8640
   29POPC  C217 3837   3.996   4.305   3.774  0.1020  0.2566  0.5577
   29POPC  H17R 3838   3.889   4.337   3.771  1.1389  4.5798  2.4775
   29POPC  H17S 3839   4.008   4.195   3.780 -4.9315 -0.5265  1.0976
   29POPC  C218 3840   4.056   4.373   3.654  0.4067 -0.2498  0.8301
   29POPC  H18R 3841   4.153   4.323   3.630 -0.1361 -0.7823 -0.3473
   29POPC  H18S 3842   4.083   4.480   3.663  2.4525 -0.8276  2.3074
   29POPC  H18T 3843   3.995   4.354   3.563 -1.8615  1.7355  1.8486
   29POPC   C33 3844   4.684   4.943   5.034 -0.1145  0.1509 -0.4109
   29POPC   H3X 3845   4.767   4.883   5.078 -1.1034 -1.7468 -1.0121
   29POPC   H3Y 3846   4.682   5.046   5.075 -2.4360  0.8878 -2.1618
   29POPC   C34 3847   4.729   4.954   4.885 -0.9027 -0.3574  0.4329
   29POPC   H4X 3848   4.732   4.857   4.832  0.4616  0.9396 -2.0198
   29POPC   H4Y 3849   4.837   4.981   4.879 -0.8774 -0.3085  0.9960
   29POPC   C35 3850   4.656   5.054   4.800  0.2351  0.5243 -0.5523
   29POPC   H5X 3851   4.670   5.162   4.824  1.7247  0.2906 -0.2928
   29POPC   H5Y 3852   4.551   5.025   4.821 -0.4037  0.9605 -2.8313
   29POPC   C36 3853   4.700   5.033   4.659  0.3372 -0.0037 -0.6620
   29POPC   H6X 3854   4.659   4.940   4.615 -2.4177  1.8474 -2.2907
   29POPC   H6Y 3855   4.811   5.027   4.657  0.5304  1.2331  1.7690
   29POPC   C37 3856   4.661   5.146   4.552 -0.1361  0.2368 -0.1242
   29POPC   H7X 3857   4.702   5.247   4.577  1.0261 -0.7607  2.3632
   29POPC   H7Y 3858   4.550   5.146   4.549 -0.1633  0.0202  0.5954
   29POPC   C38 3859   4.717   5.120   4.415 -0.9500  1.2337 -0.2239
   29POPC   H8X 3860   4.826   5.099   4.415 -1.3205 -0.9655 -1.5932
   29POPC   H8Y 3861   4.704   5.208   4.349 -0.6242  0.8597 -0.7959
   29POPC   C39 3862   4.646   4.999   4.348 -0.5173  0.0201 -0.2312
   29POPC   H9X 3863   4.538   5.016   4.369 -1.4601 -1.3957 -3.3912
   29POPC   H9Y 3864   4.676   4.900   4.389  0.6699  0.1465 -0.7467
   29POPC  C310 3865   4.663   4.999   4.193 -0.5209 -0.3910 -0.3686
   29POPC  H10X 3866   4.771   5.006   4.168 -0.4171 -1.4426 -0.2384
   29POPC  H10Y 3867   4.606   5.083   4.148 -1.6600 -1.0105 -0.1221
   29POPC  C311 3868   4.617   4.871   4.121 -0.0654  0.4836 -0.0859
   29POPC  H11X 3869   4.509   4.853   4.139  0.1586 -0.5533  0.2883
   29POPC  H11Y 3870   4.663   4.788   4.179 -1.1563  0.3870  0.6792
   29POPC  C312 3871   4.657   4.852   3.977 -0.4121  0.4654  0.3918
   29POPC  H12X 3872   4.732   4.770   3.977  0.3367  0.9906  3.7431
   29POPC  H12Y 3873   4.717   4.937   3.938  2.3666 -1.3600  0.4159
   29POPC  C313 3874   4.536   4.815   3.891 -1.4737  0.6900 -0.5376
   29POPC  H13X 3875   4.471   4.902   3.867 -2.5118 -0.0846 -0.6113
   29POPC  H13Y 3876   4.469   4.738   3.933 -0.3256 -0.3178 -0.5016
   29POPC  C314 3877   4.591   4.748   3.766 -0.7249 -0.6670 -0.1891
   29POPC  H14X 3878   4.630   4.646   3.788 -2.4519 -1.3665 -0.1417
   29POPC  H14Y 3879   4.675   4.808   3.725 -0.4600 -2.1022 -1.8675
   29POPC  C315 3880   4.482   4.743   3.658 -0.7099 -0.0522  0.0020
   29POPC  H15X 3881   4.456   4.847   3.632  1.7842  1.1394  1.8327
   29POPC  H15Y 3882   4.384   4.699   3.684 -1.5486  1.6695 -0.1114
   29POPC  C316 3883   4.522   4.657   3.536  0.1474 -0.0855 -0.1345
   29POPC  H16X 3884   4.624   4.679   3.497 -0.1484  2.4031  0.3405
   29POPC  H16Y 3885   4.446   4.662   3.455 -1.7185 -0.0071  1.5337
   29POPC  H16Z 3886   4.548   4.553   3.563  1.0335  0.2067  0.1842
   30POPC     N 3887   6.106   0.587   6.342 -0.5075 -0.4100 -0.1251
   30POPC   C12 3888   6.092   0.711   6.266 -0.5355  0.7979  0.0708
   30POPC  H12A 3889   6.181   0.729   6.207 -0.9241  2.3132 -0.0836
   30POPC  H12B 3890   6.099   0.799   6.328 -1.3444  1.8760 -1.3231
   30POPC   C13 3891   6.090   0.476   6.251  0.0611  0.1801 -0.4422
   30POPC  H13A 3892   6.102   0.384   6.307 -0.6520  0.3169 -0.0616
   30POPC  H13B 3893   6.001   0.473   6.190  1.1597 -0.2222 -2.1198
   30POPC  H13C 3894   6.175   0.481   6.183 -1.5501  1.1388 -2.5074
   30POPC   C14 3895   6.249   0.582   6.399  0.5886 -0.0267 -0.8488
   30POPC  H14A 3896   6.320   0.565   6.320  0.8117 -0.7060 -0.5077
   30POPC  H14B 3897   6.280   0.670   6.453  0.0799 -0.7005  0.5982
   30POPC  H14C 3898   6.266   0.495   6.461  1.3869  1.0746  0.5405
   30POPC   C15 3899   6.002   0.589   6.446  0.4990  1.1998 -0.3028
   30POPC  H15A 3900   6.003   0.687   6.489  3.6724  0.7277  0.9952
   30POPC  H15B 3901   6.022   0.524   6.530 -1.7672  3.2184  1.9759
   30POPC  H15C 3902   5.908   0.562   6.400  0.8868 -1.4168  0.2512
   30POPC   C11 3903   5.961   0.738   6.177  0.0930 -0.5490  0.6980
   30POPC  H11A 3904   5.957   0.652   6.106  0.6670  1.1001 -1.4418
   30POPC  H11B 3905   5.979   0.828   6.115  0.9134  0.6734  2.6148
   30POPC     P 3906   5.789   0.881   6.312  0.2514 -0.0318 -0.2857
   30POPC   O13 3907   5.902   0.970   6.338 -0.2469  0.4196 -0.0931
   30POPC   O14 3908   5.693   0.846   6.417  0.0839  0.3124 -0.4092
   30POPC   O12 3909   5.838   0.740   6.256 -0.6465  0.0452  0.2465
   30POPC   O11 3910   5.707   0.944   6.194 -0.0293 -0.5750  0.4695
   30POPC    C1 3911   5.586   0.886   6.144  0.0905 -0.3157 -0.2440
   30POPC    HA 3912   5.498   0.935   6.191  0.2602  1.5963 -1.8096
   30POPC    HB 3913   5.577   0.776   6.156  0.6911 -0.2554  0.9118
   30POPC    C2 3914   5.587   0.917   5.986 -0.3841  0.7154  0.1448
   30POPC    HS 3915   5.510   0.853   5.938  0.8592 -0.4696 -0.3322
   30POPC   O21 3916   5.717   0.895   5.920 -0.3742 -0.5760 -0.3378
   30POPC   C21 3917   5.742   0.769   5.896  0.6988  0.5679 -0.2392
   30POPC   O22 3918   5.669   0.679   5.936 -0.0309 -0.4271 -0.5439
   30POPC   C22 3919   5.868   0.750   5.809 -0.3267  0.5423 -0.0388
   30POPC   H2R 3920   5.955   0.788   5.868  0.1973  1.2912 -1.2518
   30POPC   H2S 3921   5.859   0.817   5.721  1.4910  0.6990 -0.1491
   30POPC    C3 3922   5.542   1.061   5.952 -0.8277 -0.4499  0.1365
   30POPC    HX 3923   5.627   1.129   5.976 -1.4364 -0.1765  1.5977
   30POPC    HY 3924   5.453   1.085   6.014 -1.0253 -1.2650  0.1712
   30POPC   O31 3925   5.500   1.065   5.809 -0.1822  0.1055 -0.4807
   30POPC   C31 3926   5.476   1.191   5.768 -0.8833  0.3999 -0.8958
   30POPC   O32 3927   5.487   1.291   5.839 -0.0983  0.4572 -0.3884
   30POPC   C32 3928   5.447   1.187   5.621  0.1964  0.5861 -0.0023
   30POPC   H2X 3929   5.387   1.274   5.587 -0.8527 -0.2000 -0.1742
   30POPC   H2Y 3930   5.391   1.096   5.594  3.4937 -0.9028 -2.5729
   30POPC   C23 3931   5.905   0.606   5.779 -0.1231  0.5296  0.3585
   30POPC   H3R 3932   5.883   0.551   5.872 -2.1995  1.8085  0.7074
   30POPC   H3S 3933   6.014   0.613   5.758 -0.6194  1.0912 -2.5329
   30POPC   C24 3934   5.837   0.548   5.652 -0.4896  1.0788 -0.2935
   30POPC   H4R 3935   5.851   0.634   5.583  0.0116  1.6435  0.5048
   30POPC   H4S 3936   5.729   0.528   5.672 -0.2693  0.2948  0.1235
   30POPC   C25 3937   5.916   0.427   5.604 -0.0694 -0.0698  0.5651
   30POPC   H5R 3938   5.909   0.355   5.688  1.5049  1.2668  1.9036
   30POPC   H5S 3939   6.019   0.461   5.581 -0.6153  0.4053 -1.4247
   30POPC   C26 3940   5.878   0.366   5.467 -0.7561  0.2624 -0.8212
   30POPC   H6R 3941   5.879   0.452   5.397  1.3305  0.6754 -0.3298
   30POPC   H6S 3942   5.774   0.327   5.468  0.0852 -2.1293 -0.4554
   30POPC   C27 3943   5.971   0.253   5.415  0.7739  0.0770 -0.3643
   30POPC   H7R 3944   5.994   0.177   5.493 -1.4372 -0.1052  0.1751
   30POPC   H7S 3945   6.070   0.299   5.393  0.4753  1.8308  1.6446
   30POPC   C28 3946   5.919   0.188   5.282 -0.4936 -0.0609 -0.9007
   30POPC   H8R 3947   5.816   0.158   5.310 -0.9610  2.0984 -0.0401
   30POPC   H8S 3948   5.983   0.102   5.252  0.6335 -0.0259  1.1483
   30POPC   C29 3949   5.913   0.294   5.177 -0.7437 -0.2424 -0.5301
   30POPC   H91 3950   5.858   0.386   5.200  1.2909  1.4575 -2.0780
   30POPC  C210 3951   5.968   0.285   5.055  0.7009 -0.3633  0.4278
   30POPC  H101 3952   5.953   0.374   4.993 -0.3278 -1.5152 -1.0538
   30POPC  C211 3953   6.026   0.162   4.992  0.0843  0.0661  0.0931
   30POPC  H11R 3954   6.092   0.103   5.060 -1.0487  0.5694  1.6962
   30POPC  H11S 3955   6.085   0.195   4.904 -0.5285  0.2268 -0.2647
   30POPC  C212 3956   5.919   0.060   4.954 -0.7248 -0.2410  1.7136
   30POPC  H12R 3957   5.850   0.023   5.033 -4.5211 -0.9523 -1.5700
   30POPC  H12S 3958   5.964  -0.033   4.914 -1.7963  0.5037 -1.5806
   30POPC  C213 3959   5.841   0.096   4.828  0.3674  0.1808 -0.3791
   30POPC  H13R 3960   5.914   0.130   4.751  1.2695 -0.2214  0.2654
   30POPC  H13S 3961   5.793   0.194   4.847 -1.5605 -0.6283 -0.9095
   30POPC  C214 3962   5.731  -0.002   4.796 -0.1410  0.3580  0.7341
   30POPC  H14R 3963   5.657  -0.015   4.878  0.2664  2.2445  1.4600
   30POPC  H14S 3964   5.771  -0.106   4.793 -1.3169 -0.1354  1.4424
   30POPC  C215 3965   5.650   0.042   4.670  0.0838  0.4361 -0.4920
   30POPC  H15R 3966   5.725   0.053   4.588 -2.1843  0.1417 -2.7075
   30POPC  H15S 3967   5.602   0.139   4.694 -2.7438 -0.4803 -2.0263
   30POPC  C216 3968   5.536  -0.058   4.634 -0.7942  0.6136 -0.3186
   30POPC  H16R 3969   5.446  -0.023   4.688 -0.6885 -0.3270  0.4903
   30POPC  H16S 3970   5.575  -0.153   4.676  0.3370  1.2724  0.1635
   30POPC  C217 3971   5.519  -0.082   4.481 -0.9089 -0.9458  0.0564
   30POPC  H17R 3972   5.442  -0.158   4.452 -1.3817  0.1591 -1.7295
   30POPC  H17S 3973   5.614  -0.122   4.440 -0.1673  2.0493 -1.3567
   30POPC  C218 3974   5.498   0.042   4.399  0.1062  0.4518  0.1486
   30POPC  H18R 3975   5.393   0.077   4.407 -0.6173 -1.8679  1.8778
   30POPC  H18S 3976   5.516   0.021   4.292 -2.1167  0.3160 -0.2492
   30POPC  H18T 3977   5.566   0.123   4.434  1.1878 -0.9166  1.3469
   30POPC   C33 3978   5.569   1.200   5.536 -0.4710  0.9902 -0.2402
   30POPC   H3X 3979   5.639   1.121   5.570  0.4026  1.9790  0.3595
   30POPC   H3Y 3980   5.616   1.301   5.538  1.5851  0.0845 -0.8485
   30POPC   C34 3981   5.545   1.162   5.385  0.4003  0.0044 -0.2868
   30POPC   H4X 3982   5.480   1.072   5.386  0.6551 -0.1841  0.7400
   30POPC   H4Y 3983   5.636   1.132   5.328  1.4799  0.2866  1.2144
   30POPC   C35 3984   5.474   1.281   5.304 -0.5180  0.0786 -0.0083
   30POPC   H5X 3985   5.371   1.301   5.340 -0.8558  0.2306 -1.0508
   30POPC   H5Y 3986   5.467   1.245   5.199  2.5294 -0.2155 -0.1974
   30POPC   C36 3987   5.557   1.411   5.297 -0.0224 -0.4898  0.0541
   30POPC   H6X 3988   5.664   1.384   5.306 -0.2847 -1.2579  1.0174
   30POPC   H6Y 3989   5.538   1.478   5.383  0.2020 -0.3643  0.0056
   30POPC   C37 3990   5.515   1.499   5.175 -0.2001  0.4758 -0.4021
   30POPC   H7X 3991   5.405   1.513   5.168 -0.0947  0.8866 -1.4470
   30POPC   H7Y 3992   5.549   1.450   5.082  1.8154  2.3679 -0.7479
   30POPC   C38 3993   5.593   1.634   5.175 -0.1189 -0.4133 -0.2496
   30POPC   H8X 3994   5.578   1.667   5.280 -2.1801  0.0933 -0.6526
   30POPC   H8Y 3995   5.547   1.703   5.101 -0.6583 -0.2888  0.1978
   30POPC   C39 3996   5.744   1.630   5.140 -0.4410  0.2884 -0.3143
   30POPC   H9X 3997   5.766   1.543   5.074 -1.7074 -0.7916  0.6432
   30POPC   H9Y 3998   5.809   1.617   5.229 -0.0708  0.2512 -0.5847
   30POPC  C310 3999   5.788   1.765   5.077 -1.1125 -0.0689 -0.1540
   30POPC  H10X 4000   5.766   1.844   5.151  0.6743  0.1887  0.1240
   30POPC  H10Y 4001   5.717   1.772   4.991 -1.8794 -1.5768  0.3144
   30POPC  C311 4002   5.932   1.767   5.028 -0.1838  0.0635 -0.6726
   30POPC  H11X 4003   5.999   1.717   5.101  0.2359 -1.3889 -1.9754
   30POPC  H11Y 4004   5.970   1.871   5.024  1.4040 -0.5113 -1.7388
   30POPC  C312 4005   5.955   1.692   4.901 -0.6145 -0.2817 -0.1815
   30POPC  H12X 4006   5.921   1.586   4.909 -0.8517 -0.2125 -0.2475
   30POPC  H12Y 4007   6.063   1.688   4.879 -0.6148  1.7205 -0.7456
   30POPC  C313 4008   5.904   1.770   4.770  0.4747  0.3535 -0.5829
   30POPC  H13X 4009   5.887   1.878   4.790  0.4933  0.1652  0.5031
   30POPC  H13Y 4010   5.806   1.720   4.753  0.4319  0.1073  0.3264
   30POPC  C314 4011   6.002   1.751   4.649 -0.9875 -0.3183  0.2035
   30POPC  H14X 4012   5.987   1.647   4.614 -1.3255  0.8442 -3.5018
   30POPC  H14Y 4013   6.103   1.763   4.694 -2.0750  0.5409  2.5984
   30POPC  C315 4014   5.968   1.843   4.534 -0.1376 -0.1948 -0.0376
   30POPC  H15X 4015   6.043   1.925   4.524 -0.2322 -0.1921 -0.7994
   30POPC  H15Y 4016   5.880   1.905   4.559  0.0759  1.1213 -2.2976
   30POPC  C316 4017   5.947   1.773   4.398  0.5364 -0.0069 -0.7442
   30POPC  H16X 4018   5.855   1.711   4.386  0.8969 -0.9634  1.0360
   30POPC  H16Y 4019   6.040   1.717   4.372  0.5597  0.0797 -0.8461
   30POPC  H16Z 4020   5.931   1.853   4.322 -2.6148  0.3922  0.1813
   31POPC     N 4021   7.866   7.757   6.077  0.6991 -0.1644  0.3386
   31POPC   C12 4022   8.020   7.744   6.072 -0.3942  0.0144  0.5297
   31POPC  H12A 4023   8.027   7.636   6.069 -2.6859 -0.1689 -1.6710
   31POPC  H12B 4024   8.059   7.777   6.168  0.1147  1.7182 -0.2328
   31POPC   C13 4025   7.813   7.670   6.186  0.1778  0.3402  0.3802
   31POPC  H13A 4026   7.708   7.687   6.203 -0.1270 -0.2738 -0.7427
   31POPC  H13B 4027   7.835   7.566   6.163  0.0861 -0.1122  2.1747
   31POPC  H13C 4028   7.874   7.686   6.274 -0.9984  0.5595  1.1725
   31POPC   C14 4029   7.835   7.896   6.106 -0.4373 -0.4480 -0.2217
   31POPC  H14A 4030   7.727   7.908   6.107 -0.2679  3.4600 -3.4996
   31POPC  H14B 4031   7.865   7.918   6.208  2.3833 -0.4452 -0.9767
   31POPC  H14C 4032   7.888   7.964   6.042 -1.2328  0.1788 -0.2276
   31POPC   C15 4033   7.800   7.717   5.944 -0.4448 -0.7261  0.2548
   31POPC  H15A 4034   7.825   7.787   5.866  0.5659 -1.2988  0.0383
   31POPC  H15B 4035   7.694   7.714   5.965  0.1176 -5.4731  4.4210
   31POPC  H15C 4036   7.827   7.616   5.917 -1.3393 -0.6954 -0.8345
   31POPC   C11 4037   8.105   7.799   5.948  0.5443 -0.0233 -0.3270
   31POPC  H11A 4038   8.081   7.726   5.868 -1.2073  1.0385 -0.8326
   31POPC  H11B 4039   8.215   7.795   5.962  0.9381  0.4236 -2.8829
   31POPC     P 4040   8.050   7.968   5.754  0.5211 -0.1267 -0.3497
   31POPC   O13 4041   8.102   8.103   5.738  0.4112  0.4544  0.1557
   31POPC   O14 4042   7.900   7.953   5.735  0.0003 -0.1775 -0.3049
   31POPC   O12 4043   8.072   7.929   5.904  0.1625  0.7656 -0.1000
   31POPC   O11 4044   8.125   7.854   5.669  0.5389 -0.6889 -0.2336
   31POPC    C1 4045   8.236   7.887   5.591 -0.9756  0.1168 -0.3490
   31POPC    HA 4046   8.302   7.798   5.594 -0.3996  0.5612  0.7935
   31POPC    HB 4047   8.298   7.971   5.628 -1.2197 -0.3861  1.2879
   31POPC    C2 4048   8.199   7.935   5.443 -0.0190 -0.8676 -0.3135
   31POPC    HS 4049   8.163   8.040   5.447  0.0102 -0.7805 -1.7362
   31POPC   O21 4050   8.096   7.847   5.395 -0.8691 -0.1959  0.0344
   31POPC   C21 4051   8.032   7.894   5.290  0.4549 -0.5446 -0.3207
   31POPC   O22 4052   8.035   8.012   5.258  0.3619  0.6345 -0.4372
   31POPC   C22 4053   7.949   7.785   5.220  0.0343 -0.5590 -0.1607
   31POPC   H2R 4054   7.888   7.741   5.302 -0.5453  1.6518  0.6779
   31POPC   H2S 4055   8.015   7.704   5.182  1.3918 -0.3098  1.5129
   31POPC    C3 4056   8.332   7.929   5.362  0.6540 -0.1152 -0.1843
   31POPC    HX 4057   8.371   7.825   5.361  3.1647  0.7098  2.1258
   31POPC    HY 4058   8.406   7.987   5.420  1.4819 -0.6233 -0.7231
   31POPC   O31 4059   8.319   7.981   5.229  0.0395 -0.0531  0.2263
   31POPC   C31 4060   8.410   7.934   5.138  0.9048  1.1211  0.2096
   31POPC   O32 4061   8.492   7.846   5.166 -0.9454 -0.2942  0.2745
   31POPC   C32 4062   8.385   7.996   5.003 -0.1600 -0.2684 -0.9433
   31POPC   H2X 4063   8.427   8.098   5.015  1.9869 -0.9203 -2.4152
   31POPC   H2Y 4064   8.275   7.989   4.986 -0.4873  0.9625  0.4802
   31POPC   C23 4065   7.867   7.850   5.113  0.7440  0.3684  0.1914
   31POPC   H3R 4066   7.811   7.942   5.139 -0.1178 -0.3598  1.0222
   31POPC   H3S 4067   7.791   7.772   5.090 -0.9325  2.3133 -1.1249
   31POPC   C24 4068   7.951   7.890   4.986  0.2813  0.1287 -0.7769
   31POPC   H4R 4069   8.041   7.944   5.021  0.3403 -0.5246  0.1305
   31POPC   H4S 4070   7.893   7.962   4.925 -0.4306  0.0725 -0.1886
   31POPC   C25 4071   7.987   7.777   4.893 -0.2995  0.0051  0.4948
   31POPC   H5R 4072   7.903   7.706   4.903  0.7388 -1.2478  0.5942
   31POPC   H5S 4073   8.077   7.724   4.932  0.3895  0.2186 -0.7392
   31POPC   C26 4074   8.013   7.811   4.747  0.5405  0.0235  0.1970
   31POPC   H6R 4075   8.121   7.835   4.739 -0.0139  3.2023  0.8460
   31POPC   H6S 4076   7.952   7.901   4.725 -0.1567 -0.6256 -0.6313
   31POPC   C27 4077   7.992   7.695   4.641 -0.3701  0.6352 -0.0854
   31POPC   H7R 4078   7.915   7.729   4.568 -0.3945  1.1573  0.1774
   31POPC   H7S 4079   7.944   7.614   4.700 -0.9968  0.4802 -0.7847
   31POPC   C28 4080   8.116   7.636   4.570 -0.0019 -0.1400 -0.4022
   31POPC   H8R 4081   8.189   7.606   4.649  1.2616  1.2772 -1.0009
   31POPC   H8S 4082   8.164   7.724   4.523  0.8823 -0.9088 -0.9622
   31POPC   C29 4083   8.073   7.533   4.463 -0.6218 -0.2105 -0.0869
   31POPC   H91 4084   8.018   7.570   4.375  0.1432  0.3300 -0.3483
   31POPC  C210 4085   8.102   7.401   4.480 -0.5403  0.2171 -0.5631
   31POPC  H101 4086   8.062   7.329   4.408  2.2018 -2.4328  0.3443
   31POPC  C211 4087   8.155   7.334   4.607  0.2267  0.5212 -0.0086
   31POPC  H11R 4088   8.250   7.379   4.643  0.3037  0.6019 -0.3063
   31POPC  H11S 4089   8.188   7.231   4.583  0.3896 -0.1467  2.7517
   31POPC  C212 4090   8.045   7.332   4.706 -0.2218  0.2777  0.1969
   31POPC  H12R 4091   7.949   7.298   4.663 -0.9113  0.0292  1.8528
   31POPC  H12S 4092   8.022   7.436   4.735 -0.9575 -0.5874  3.0252
   31POPC  C213 4093   8.094   7.260   4.827  0.3463 -0.0590  0.1524
   31POPC  H13R 4094   8.194   7.302   4.849 -0.0034  0.5786  0.5419
   31POPC  H13S 4095   8.095   7.153   4.797 -1.5930  0.2626 -1.2840
   31POPC  C214 4096   8.007   7.258   4.952 -0.5687  0.7057  0.3539
   31POPC  H14R 4097   8.065   7.226   5.041 -0.6665  2.0565  0.9202
   31POPC  H14S 4098   7.928   7.182   4.934 -0.3248  0.8327 -1.4176
   31POPC  C215 4099   7.929   7.385   4.983  0.3756  0.5742 -0.3877
   31POPC  H15R 4100   7.869   7.397   4.890 -0.2045  2.0029  0.1401
   31POPC  H15S 4101   7.991   7.477   4.992 -0.5103  0.9949  2.7358
   31POPC  C216 4102   7.844   7.365   5.112 -0.5599  0.1326 -0.0165
   31POPC  H16R 4103   7.792   7.266   5.110 -0.2303 -0.0262 -0.8599
   31POPC  H16S 4104   7.762   7.439   5.120  0.3127  1.0255  0.8448
   31POPC  C217 4105   7.916   7.394   5.247  0.3194  0.3470  0.5668
   31POPC  H17R 4106   7.938   7.503   5.252 -2.0171  0.8549  0.7254
   31POPC  H17S 4107   8.010   7.337   5.262  0.6511  0.2995 -1.4213
   31POPC  C218 4108   7.811   7.372   5.363 -0.0994 -0.2980  0.2488
   31POPC  H18R 4109   7.775   7.268   5.374  2.7925 -1.4903 -0.5731
   31POPC  H18S 4110   7.724   7.441   5.358 -0.8072 -1.2140 -0.3133
   31POPC  H18T 4111   7.874   7.397   5.452 -1.8553  1.3902  1.0855
   31POPC   C33 4112   8.476   7.942   4.892 -0.1458  0.2545  0.1074
   31POPC   H3X 4113   8.573   7.950   4.945 -0.6165 -0.4863  1.1181
   31POPC   H3Y 4114   8.466   8.014   4.808 -0.6289 -0.6453 -0.6261
   31POPC   C34 4115   8.431   7.799   4.850 -0.1724 -0.2913 -0.3997
   31POPC   H4X 4116   8.325   7.782   4.819  0.0329 -1.8974 -0.3454
   31POPC   H4Y 4117   8.445   7.732   4.937  0.0123  0.3173  0.0419
   31POPC   C35 4118   8.527   7.743   4.745 -0.6723 -0.3495 -0.0388
   31POPC   H5X 4119   8.500   7.639   4.715 -2.5020  0.4993 -1.5512
   31POPC   H5Y 4120   8.630   7.733   4.787 -0.2786 -0.0447 -0.9036
   31POPC   C36 4121   8.555   7.828   4.611  0.1210  0.3883  0.0799
   31POPC   H6X 4122   8.645   7.796   4.554  0.4938 -1.5811  1.6731
   31POPC   H6Y 4123   8.577   7.935   4.631  1.1511  0.5977 -1.9067
   31POPC   C37 4124   8.435   7.820   4.505  0.0386  0.6964 -0.3023
   31POPC   H7X 4125   8.338   7.849   4.549 -0.8149  1.0320 -2.3090
   31POPC   H7Y 4126   8.448   7.711   4.487  1.9588  0.9429 -0.6511
   31POPC   C38 4127   8.459   7.923   4.396  0.3631  0.0810 -0.0565
   31POPC   H8X 4128   8.561   7.933   4.352  1.1538 -1.6308  1.2656
   31POPC   H8Y 4129   8.429   8.024   4.430 -2.5148  0.0386 -2.0970
   31POPC   C39 4130   8.355   7.902   4.282 -0.4622 -0.3178 -0.2897
   31POPC   H9X 4131   8.255   7.906   4.331 -0.1655 -0.4359  0.3402
   31POPC   H9Y 4132   8.376   7.798   4.250  0.5863 -0.5660  1.0938
   31POPC  C310 4133   8.358   8.011   4.174 -0.3542  0.5528  0.7744
   31POPC  H10X 4134   8.334   8.110   4.217  0.4846  0.8244  0.6385
   31POPC  H10Y 4135   8.274   7.996   4.103 -0.1008 -0.7033  0.7036
   31POPC  C311 4136   8.482   8.023   4.097 -0.1554  0.4791 -0.7952
   31POPC  H11X 4137   8.502   7.927   4.044  1.3375  0.3463 -0.0358
   31POPC  H11Y 4138   8.570   8.035   4.164  0.1716  0.1216 -1.1484
   31POPC  C312 4139   8.478   8.139   3.997  0.5587 -0.8556  0.1779
   31POPC  H12X 4140   8.464   8.234   4.053 -1.1026 -2.4532  2.6504
   31POPC  H12Y 4141   8.393   8.122   3.927 -1.7951  0.3839  2.5674
   31POPC  C313 4142   8.604   8.173   3.920 -0.5992  0.8018 -0.3553
   31POPC  H13X 4143   8.687   8.111   3.961 -0.0004  0.7814 -1.5554
   31POPC  H13Y 4144   8.637   8.277   3.937 -3.0077  1.6838 -0.7080
   31POPC  C314 4145   8.585   8.141   3.768 -0.0563  0.2972  0.1721
   31POPC  H14X 4146   8.519   8.209   3.712  1.3718  0.5560 -1.2686
   31POPC  H14Y 4147   8.558   8.034   3.753  1.1841  0.0718 -0.6315
   31POPC  C315 4148   8.714   8.151   3.681 -0.4952 -0.1700  0.1860
   31POPC  H15X 4149   8.800   8.108   3.737  0.1606  1.7684  0.7121
   31POPC  H15Y 4150   8.729   8.259   3.664 -2.2699  0.0010 -0.5788
   31POPC  C316 4151   8.688   8.094   3.540  0.2447  0.3838  0.1762
   31POPC  H16X 4152   8.670   7.985   3.532  2.3607  0.0631 -1.0095
   31POPC  H16Y 4153   8.773   8.110   3.470  1.6317  1.5994  2.0098
   31POPC  H16Z 4154   8.598   8.145   3.499 -0.1484  0.9821  1.7096
   32POPC     N 4155   6.908   6.641   6.474  0.6717  0.2120 -0.1961
   32POPC   C12 4156   7.006   6.605   6.364 -0.0617 -0.3769  0.2505
   32POPC  H12A 4157   7.087   6.545   6.403  0.1792 -0.9277 -1.0417
   32POPC  H12B 4158   7.059   6.692   6.329  1.0134 -1.2498 -0.3788
   32POPC   C13 4159   6.976   6.735   6.567 -0.0626 -0.6287 -0.5260
   32POPC  H13A 4160   6.957   6.836   6.535 -1.1840 -0.4557  0.6144
   32POPC  H13B 4161   6.931   6.727   6.665  1.3473  1.5477  0.3751
   32POPC  H13C 4162   7.079   6.708   6.585  0.3587  0.8184 -0.7060
   32POPC   C14 4163   6.786   6.717   6.421  0.7060 -0.1159 -0.2457
   32POPC  H14A 4164   6.712   6.645   6.389 -3.1383  0.2447  6.1410
   32POPC  H14B 4165   6.740   6.772   6.501  0.3598  0.4035 -0.7965
   32POPC  H14C 4166   6.804   6.793   6.347 -0.8222  0.2939 -0.2231
   32POPC   C15 4167   6.868   6.511   6.550 -0.4423 -0.4720 -0.1220
   32POPC  H15A 4168   6.805   6.527   6.637 -1.6415  1.1235 -1.2412
   32POPC  H15B 4169   6.957   6.466   6.592 -0.7264 -0.1685  0.8374
   32POPC  H15C 4170   6.818   6.446   6.480 -1.5261  1.4856 -1.2299
   32POPC   C11 4171   6.959   6.533   6.239  0.4707  0.2803  0.1376
   32POPC  H11A 4172   7.048   6.511   6.176  1.1322  2.3048  0.3161
   32POPC  H11B 4173   6.891   6.596   6.178 -0.6821 -0.5226  0.5530
   32POPC     P 4174   6.964   6.270   6.262  0.4250 -0.3690 -0.0963
   32POPC   O13 4175   6.892   6.166   6.341 -0.4792 -0.3653  0.3069
   32POPC   O14 4176   7.109   6.292   6.296  0.5539 -0.3340  0.2282
   32POPC   O12 4177   6.881   6.411   6.275 -0.0606  0.0376  0.0411
   32POPC   O11 4178   6.962   6.223   6.107  0.0979  0.1725  0.1653
   32POPC    C1 4179   6.849   6.248   6.024  0.2432  0.5487 -0.2595
   32POPC    HA 4180   6.828   6.357   6.031 -0.4756  0.2955  2.7026
   32POPC    HB 4181   6.760   6.196   6.064  1.6936 -1.1239  0.9548
   32POPC    C2 4182   6.876   6.205   5.879 -0.6897 -0.3129  0.2258
   32POPC    HS 4183   6.851   6.097   5.872 -1.0904 -0.1291 -1.7254
   32POPC   O21 4184   7.013   6.238   5.845  0.1456 -0.3419 -0.5531
   32POPC   C21 4185   7.058   6.161   5.747  0.1686 -0.2368 -0.6412
   32POPC   O22 4186   7.009   6.055   5.712  0.1159  0.1200 -0.5496
   32POPC   C22 4187   7.178   6.223   5.674 -0.1988  0.4546  0.0133
   32POPC   H2R 4188   7.229   6.282   5.754 -1.9863  2.8102 -0.4772
   32POPC   H2S 4189   7.148   6.290   5.591 -0.7525  0.1010 -0.0758
   32POPC    C3 4190   6.782   6.287   5.785  0.5389 -0.8177 -0.4295
   32POPC    HX 4191   6.802   6.395   5.800 -1.4799 -0.4063 -0.4057
   32POPC    HY 4192   6.677   6.285   5.820  1.0583  0.8157  1.4029
   32POPC   O31 4193   6.800   6.265   5.645  0.8500  0.0655  0.1855
   32POPC   C31 4194   6.709   6.172   5.594 -0.4029 -1.1547 -0.7648
   32POPC   O32 4195   6.619   6.123   5.662 -0.5304 -0.0795  0.6641
   32POPC   C32 4196   6.759   6.119   5.466  0.0276  0.3450  0.5185
   32POPC   H2X 4197   6.707   6.026   5.435  1.8984 -0.8422  0.8034
   32POPC   H2Y 4198   6.865   6.088   5.475 -0.1756 -0.6966 -0.4958
   32POPC   C23 4199   7.283   6.124   5.623  0.8782 -0.9286  0.3729
   32POPC   H3R 4200   7.298   6.053   5.707 -2.5479 -0.0659  1.8873
   32POPC   H3S 4201   7.376   6.179   5.595  1.7143 -1.2319  2.3645
   32POPC   C24 4202   7.234   6.039   5.500  0.0198 -0.0484 -0.5252
   32POPC   H4R 4203   7.157   6.096   5.443 -0.0496  0.2440 -0.1526
   32POPC   H4S 4204   7.186   5.944   5.530  1.5289 -0.7849 -0.3510
   32POPC   C25 4205   7.344   5.997   5.403 -0.1458 -0.2473 -0.2561
   32POPC   H5R 4206   7.427   5.951   5.460  0.1384  2.5905  1.7751
   32POPC   H5S 4207   7.377   6.084   5.343 -0.4345 -0.3779 -0.6107
   32POPC   C26 4208   7.304   5.896   5.291 -0.9791  0.2667 -0.7086
   32POPC   H6R 4209   7.210   5.937   5.248 -0.4210  1.1805 -1.0899
   32POPC   H6S 4210   7.282   5.793   5.326  1.5409 -1.0063 -2.5923
   32POPC   C27 4211   7.409   5.890   5.180 -0.2866 -1.0395  0.3027
   32POPC   H7R 4212   7.511   5.882   5.224  0.2793 -2.7719 -1.1785
   32POPC   H7S 4213   7.413   5.989   5.128 -0.5368 -0.4337  1.4002
   32POPC   C28 4214   7.381   5.785   5.073 -0.0235  0.5256 -0.6693
   32POPC   H8R 4215   7.294   5.813   5.009  0.1097  0.6538 -0.7944
   32POPC   H8S 4216   7.352   5.684   5.109 -0.4262  0.2134 -1.8092
   32POPC   C29 4217   7.500   5.761   4.990  0.3949  0.0549  0.3860
   32POPC   H91 4218   7.591   5.758   5.051  0.3531  1.5444  0.5729
   32POPC  C210 4219   7.518   5.781   4.854 -0.5966  0.3097 -0.3760
   32POPC  H101 4220   7.623   5.779   4.823 -0.6920  0.4191 -0.7089
   32POPC  C211 4221   7.407   5.801   4.756  0.2487 -0.1712 -0.6637
   32POPC  H11R 4222   7.435   5.880   4.683 -2.6666  3.0083  1.2993
   32POPC  H11S 4223   7.315   5.845   4.800  0.0645 -1.7373  0.5989
   32POPC  C212 4224   7.376   5.666   4.688  0.0186 -0.1457  0.5005
   32POPC  H12R 4225   7.277   5.673   4.639  0.6113 -2.2729 -1.1472
   32POPC  H12S 4226   7.381   5.585   4.764 -1.2385 -0.6001  0.1192
   32POPC  C213 4227   7.460   5.649   4.567  0.3899  0.1072  0.2754
   32POPC  H13R 4228   7.563   5.634   4.605  0.3068 -0.3297  0.3344
   32POPC  H13S 4229   7.450   5.742   4.507 -2.3709 -0.3155 -0.0702
   32POPC  C214 4230   7.415   5.529   4.488  0.2390  0.0725 -0.6877
   32POPC  H14R 4231   7.313   5.566   4.463 -0.3848 -2.6658 -2.5926
   32POPC  H14S 4232   7.417   5.436   4.548  2.8465  0.0737 -0.6392
   32POPC  C215 4233   7.499   5.512   4.355 -0.2189 -0.0787 -0.8589
   32POPC  H15R 4234   7.459   5.431   4.291  0.4091 -0.2872 -0.9943
   32POPC  H15S 4235   7.599   5.474   4.387  0.4840 -0.5148 -3.3546
   32POPC  C216 4236   7.534   5.635   4.274  0.1882 -0.0865  0.2330
   32POPC  H16R 4237   7.612   5.689   4.333  0.3079  1.2235 -1.0584
   32POPC  H16S 4238   7.449   5.704   4.255  0.6496  0.2912 -0.5043
   32POPC  C217 4239   7.615   5.606   4.145  0.2019  0.8520  0.5858
   32POPC  H17R 4240   7.551   5.529   4.097  1.3761  0.1126  0.1683
   32POPC  H17S 4241   7.703   5.546   4.176  0.3721  0.0130 -1.4202
   32POPC  C218 4242   7.661   5.721   4.056 -0.2020 -0.4089 -0.3295
   32POPC  H18R 4243   7.729   5.788   4.113 -1.0714 -0.8448  1.2614
   32POPC  H18S 4244   7.571   5.776   4.022 -0.0837 -1.5354 -2.6524
   32POPC  H18T 4245   7.724   5.689   3.970  1.6280  3.2611 -0.5714
   32POPC   C33 4246   6.749   6.235   5.360  0.0545 -0.3721  0.2894
   32POPC   H3X 4247   6.814   6.210   5.273 -0.6234  0.1114 -0.3706
   32POPC   H3Y 4248   6.815   6.316   5.396  1.4770 -0.3335 -2.1732
   32POPC   C34 4249   6.609   6.275   5.302 -0.1232  0.0501 -0.5163
   32POPC   H4X 4250   6.550   6.321   5.383 -0.9820  0.2694 -1.2502
   32POPC   H4Y 4251   6.554   6.187   5.262  1.2494 -0.6374 -0.9859
   32POPC   C35 4252   6.617   6.387   5.196 -0.1635  0.2939 -0.2049
   32POPC   H5X 4253   6.646   6.480   5.250 -1.6651  0.4483  0.3626
   32POPC   H5Y 4254   6.513   6.402   5.160 -0.3776 -1.6563 -0.4823
   32POPC   C36 4255   6.711   6.371   5.085  0.5831 -0.4307 -0.3883
   32POPC   H6X 4256   6.721   6.265   5.053 -0.1955 -1.0976  1.4592
   32POPC   H6Y 4257   6.816   6.401   5.104  0.3227  0.8885 -0.9093
   32POPC   C37 4258   6.675   6.468   4.972 -0.5543  0.2469  0.1499
   32POPC   H7X 4259   6.661   6.569   5.015  2.4638  2.1131 -2.7261
   32POPC   H7Y 4260   6.585   6.431   4.918  0.4126 -0.4779 -1.0280
   32POPC   C38 4261   6.792   6.470   4.875  0.7593 -0.5350 -0.3452
   32POPC   H8X 4262   6.877   6.524   4.921  1.2377 -1.5427 -0.0017
   32POPC   H8Y 4263   6.764   6.540   4.794 -0.3923 -0.0500  0.4584
   32POPC   C39 4264   6.847   6.339   4.810  0.2399 -0.6911  0.1001
   32POPC   H9X 4265   6.860   6.257   4.884  0.6984  0.8693  1.8121
   32POPC   H9Y 4266   6.952   6.364   4.785 -0.0017  0.3140  0.0298
   32POPC  C310 4267   6.759   6.296   4.694  0.2257  0.1671  0.3975
   32POPC  H10X 4268   6.790   6.359   4.608 -0.6882  0.3975  0.2285
   32POPC  H10Y 4269   6.652   6.318   4.715  0.7785  1.0172  2.6317
   32POPC  C311 4270   6.756   6.153   4.665  0.3057  0.4849  0.3826
   32POPC  H11X 4271   6.674   6.145   4.590 -1.1121  0.7636  1.8457
   32POPC  H11Y 4272   6.720   6.094   4.752 -3.4335  0.7318 -0.8330
   32POPC  C312 4273   6.887   6.106   4.602  0.0542 -0.1652 -0.0356
   32POPC  H12X 4274   6.974   6.138   4.663 -0.4036  0.8302  0.1135
   32POPC  H12Y 4275   6.901   6.159   4.506  1.2362 -1.7097 -0.7512
   32POPC  C313 4276   6.885   5.957   4.584 -0.7842  0.2970  0.7088
   32POPC  H13X 4277   6.797   5.933   4.520  0.0351  0.7758 -0.6405
   32POPC  H13Y 4278   6.869   5.908   4.682  0.7922 -0.6696  0.5200
   32POPC  C314 4279   7.020   5.900   4.524  1.1457 -0.1912 -0.7865
   32POPC  H14X 4280   7.045   5.804   4.574 -0.3810 -0.5998 -0.7620
   32POPC  H14Y 4281   7.092   5.975   4.563  0.6148  0.2714 -0.6776
   32POPC  C315 4282   7.032   5.907   4.370  0.6872  0.4389  0.3804
   32POPC  H15X 4283   7.020   6.006   4.322  1.1653 -0.3463 -1.4660
   32POPC  H15Y 4284   6.944   5.850   4.333  0.6895 -0.1368  1.2467
   32POPC  C316 4285   7.158   5.840   4.321 -0.2096  0.4759  0.3994
   32POPC  H16X 4286   7.171   5.844   4.210  0.0527  4.4738  0.4124
   32POPC  H16Y 4287   7.166   5.736   4.358  1.0818  1.1557  2.2006
   32POPC  H16Z 4288   7.241   5.905   4.355 -0.9855  1.8063 -0.1519
   33POPC     N 4289   1.151   2.746   6.103 -0.4142  0.5270 -0.2655
   33POPC   C12 4290   1.092   2.763   5.971 -0.4037  0.6952  0.2847
   33POPC  H12A 4291   1.108   2.861   5.930 -0.8706  1.2403  1.3644
   33POPC  H12B 4292   0.986   2.755   5.992 -0.0587 -0.3338  1.8623
   33POPC   C13 4293   1.291   2.707   6.102 -0.1177  0.6494  0.1661
   33POPC  H13A 4294   1.300   2.612   6.051 -2.0459  0.9188 -0.7431
   33POPC  H13B 4295   1.346   2.776   6.039 -1.0617  0.8788 -0.4227
   33POPC  H13C 4296   1.338   2.702   6.199  0.1742  1.9857  0.1180
   33POPC   C14 4297   1.147   2.873   6.176  0.0954 -0.4397  0.6985
   33POPC  H14A 4298   1.192   2.865   6.274  0.3265 -0.6253  0.5779
   33POPC  H14B 4299   1.200   2.952   6.123 -0.8396  0.7532  1.4965
   33POPC  H14C 4300   1.050   2.918   6.190  0.7813  1.4262 -0.1557
   33POPC   C15 4301   1.078   2.635   6.187 -0.4031  0.1379 -0.4196
   33POPC  H15A 4302   1.106   2.544   6.136  1.3890  0.8269 -0.7374
   33POPC  H15B 4303   0.971   2.650   6.178 -0.5770 -0.8026  0.0754
   33POPC  H15C 4304   1.121   2.625   6.285  1.0123 -0.4785 -1.0677
   33POPC   C11 4305   1.116   2.657   5.861 -0.0259 -0.1758 -0.6472
   33POPC  H11A 4306   1.217   2.664   5.814  0.9035  3.4179  1.5560
   33POPC  H11B 4307   1.048   2.696   5.783  0.2218  1.4092 -0.0989
   33POPC     P 4308   0.957   2.444   5.886 -0.1239 -0.0873  0.0539
   33POPC   O13 4309   0.848   2.523   5.943  0.0114  0.0574  0.3787
   33POPC   O14 4310   0.971   2.305   5.933  0.3073  0.0589 -0.4325
   33POPC   O12 4311   1.082   2.523   5.918 -0.2004  0.0559  0.3590
   33POPC   O11 4312   0.947   2.447   5.730  0.3935  0.0702  0.5427
   33POPC    C1 4313   1.035   2.373   5.651  0.0686  0.2652  0.2557
   33POPC    HA 4314   0.992   2.271   5.641 -4.0304  1.8864 -0.4075
   33POPC    HB 4315   1.138   2.363   5.691  0.5247  0.2241 -0.8761
   33POPC    C2 4316   1.063   2.442   5.517  0.0802 -0.0840 -0.0331
   33POPC    HS 4317   1.129   2.529   5.543  0.5139  0.1919 -1.9228
   33POPC   O21 4318   0.943   2.487   5.452  0.2048  0.2453  0.0390
   33POPC   C21 4319   0.895   2.602   5.474  0.3929 -0.3115 -0.9854
   33POPC   O22 4320   0.951   2.688   5.544 -0.0533  0.3051 -0.0843
   33POPC   C22 4321   0.766   2.630   5.397  0.9190 -0.6608 -0.5981
   33POPC   H2R 4322   0.703   2.704   5.450  0.0549 -1.8937  0.1418
   33POPC   H2S 4323   0.707   2.537   5.383  0.8085 -0.3430 -2.5271
   33POPC    C3 4324   1.151   2.362   5.416  0.4368 -0.0408  0.6052
   33POPC    HX 4325   1.096   2.269   5.394 -0.2664  0.5030  0.0123
   33POPC    HY 4326   1.246   2.332   5.465  0.8277 -2.5974 -1.5275
   33POPC   O31 4327   1.177   2.436   5.296 -0.3167  0.0463  0.1534
   33POPC   C31 4328   1.250   2.548   5.305  0.2376  0.2947 -0.1385
   33POPC   O32 4329   1.336   2.571   5.388  0.2564 -0.1300  0.5769
   33POPC   C32 4330   1.209   2.636   5.193 -0.0179  0.4608  0.1064
   33POPC   H2X 4331   1.212   2.742   5.225 -1.4758  1.4432 -2.6669
   33POPC   H2Y 4332   1.109   2.606   5.153  0.6720 -3.2980  0.8539
   33POPC   C23 4333   0.801   2.670   5.251 -0.3066  0.3602 -0.8063
   33POPC   H3R 4334   0.711   2.649   5.189  0.6728  0.4700 -2.2872
   33POPC   H3S 4335   0.888   2.608   5.221 -0.6263  0.1452 -1.2954
   33POPC   C24 4336   0.837   2.817   5.235 -0.4781  0.6104  0.5385
   33POPC   H4R 4337   0.947   2.822   5.249  0.0959 -1.5481 -2.1448
   33POPC   H4S 4338   0.787   2.863   5.322 -1.3900  0.6828 -0.0138
   33POPC   C25 4339   0.788   2.869   5.104 -0.1642  0.9687  0.6943
   33POPC   H5R 4340   0.780   2.980   5.109 -1.0927  0.9184  0.6134
   33POPC   H5S 4341   0.696   2.815   5.074  0.9642 -0.7336  0.1405
   33POPC   C26 4342   0.895   2.836   4.997  0.1033 -0.0686 -0.2367
   33POPC   H6R 4343   0.926   2.729   5.002 -0.6340 -0.4903 -3.0680
   33POPC   H6S 4344   0.983   2.894   5.031  1.0226 -2.3845  1.5996
   33POPC   C27 4345   0.867   2.877   4.846 -0.1268 -0.1061  0.2889
   33POPC   H7R 4346   0.849   2.987   4.844  1.1853  0.1204 -0.4162
   33POPC   H7S 4347   0.779   2.814   4.823 -1.9063  2.1558  0.4811
   33POPC   C28 4348   0.979   2.826   4.756 -0.6664  0.2742  0.4297
   33POPC   H8R 4349   0.967   2.718   4.731 -0.7592  0.9598 -3.0071
   33POPC   H8S 4350   1.079   2.849   4.798 -0.7399 -0.4044  0.9921
   33POPC   C29 4351   0.979   2.902   4.632  0.1320 -0.1904  0.2883
   33POPC   H91 4352   1.036   2.996   4.629 -1.5303  0.8458 -0.6653
   33POPC  C210 4353   0.896   2.870   4.530  0.7732 -0.1927 -0.2362
   33POPC  H101 4354   0.897   2.935   4.441 -0.9570  0.0174 -0.1401
   33POPC  C211 4355   0.795   2.756   4.522 -0.1030 -1.0325 -0.3172
   33POPC  H11R 4356   0.713   2.791   4.588  2.5457  0.2678  2.5092
   33POPC  H11S 4357   0.836   2.662   4.566  2.7469  0.0282 -0.4922
   33POPC  C212 4358   0.755   2.725   4.374  0.7603 -0.0275 -0.7188
   33POPC  H12R 4359   0.838   2.705   4.303 -0.0830  0.7636 -1.9833
   33POPC  H12S 4360   0.699   2.808   4.326  1.4087 -0.2170 -1.8371
   33POPC  C213 4361   0.656   2.605   4.367  0.9100  0.4297 -0.0705
   33POPC  H13R 4362   0.563   2.630   4.423  0.0705  2.6340 -2.2803
   33POPC  H13S 4363   0.708   2.521   4.419  0.8610  1.4313  1.6933
   33POPC  C214 4364   0.606   2.565   4.228 -0.5268  0.1219  0.1798
   33POPC  H14R 4365   0.697   2.533   4.172 -0.6307  1.7608 -0.9649
   33POPC  H14S 4366   0.560   2.655   4.184 -0.5298  0.0273 -0.0102
   33POPC  C215 4367   0.507   2.442   4.218 -0.2016  0.0015 -0.8858
   33POPC  H15R 4368   0.415   2.487   4.261  0.7464  1.1038  0.0832
   33POPC  H15S 4369   0.537   2.353   4.277  1.6154  1.2781  0.2360
   33POPC  C216 4370   0.490   2.396   4.074 -0.5490 -0.0087  1.3383
   33POPC  H16R 4371   0.585   2.350   4.037 -1.8711 -2.8122  1.1314
   33POPC  H16S 4372   0.469   2.486   4.013  0.7048  0.4553  1.5498
   33POPC  C217 4373   0.384   2.290   4.060 -0.7360 -0.1505  0.0597
   33POPC  H17R 4374   0.343   2.274   3.958  2.0529  1.4012 -1.4236
   33POPC  H17S 4375   0.304   2.341   4.118 -0.1325  0.6012  0.2446
   33POPC  C218 4376   0.429   2.160   4.120 -0.0549  1.1905  0.2554
   33POPC  H18R 4377   0.342   2.093   4.136  0.0723  0.8569 -0.4189
   33POPC  H18S 4378   0.478   2.178   4.219 -1.1614 -1.1694  1.3147
   33POPC  H18T 4379   0.499   2.108   4.051 -2.0283 -1.9094  0.3975
   33POPC   C33 4380   1.311   2.637   5.082 -0.3112 -0.1622  1.0300
   33POPC   H3X 4381   1.301   2.544   5.021 -2.7676 -0.3395  1.6110
   33POPC   H3Y 4382   1.413   2.633   5.127  0.7952 -0.8743 -1.4047
   33POPC   C34 4383   1.304   2.765   4.986 -0.1724 -0.0493 -0.5461
   33POPC   H4X 4384   1.312   2.851   5.056 -1.2086 -0.7250  0.4459
   33POPC   H4Y 4385   1.201   2.778   4.946 -0.0097  0.5826 -0.7679
   33POPC   C35 4386   1.420   2.775   4.885  0.6049 -0.2126  0.2618
   33POPC   H5X 4387   1.509   2.786   4.950  2.1252 -1.9865 -1.3803
   33POPC   H5Y 4388   1.400   2.866   4.825 -0.6734  0.7167  2.0072
   33POPC   C36 4389   1.443   2.650   4.797 -0.3452 -0.2109  0.5918
   33POPC   H6X 4390   1.498   2.575   4.856  1.7375  2.4045  2.1985
   33POPC   H6Y 4391   1.511   2.672   4.712 -2.3337  2.4590 -0.4765
   33POPC   C37 4392   1.313   2.603   4.723 -1.0552 -0.5470 -0.2098
   33POPC   H7X 4393   1.229   2.599   4.796 -1.1008 -0.3725 -0.2518
   33POPC   H7Y 4394   1.338   2.496   4.704 -0.4432 -0.1451 -1.8536
   33POPC   C38 4395   1.268   2.676   4.595 -0.3559  0.3944 -0.5138
   33POPC   H8X 4396   1.345   2.706   4.522 -0.5692 -0.7638 -1.2465
   33POPC   H8Y 4397   1.205   2.765   4.617  1.0414  0.8579  1.9163
   33POPC   C39 4398   1.174   2.581   4.513 -0.3042  0.4758  0.4421
   33POPC   H9X 4399   1.076   2.565   4.564 -0.3783  1.1991  0.5437
   33POPC   H9Y 4400   1.218   2.479   4.505 -0.6473  0.2712  1.0675
   33POPC  C310 4401   1.139   2.639   4.372 -0.4477 -0.0270  0.6207
   33POPC  H10X 4402   1.237   2.667   4.329 -0.7910  0.1588 -0.0532
   33POPC  H10Y 4403   1.069   2.724   4.387 -0.7353 -0.1452 -0.0038
   33POPC  C311 4404   1.065   2.532   4.290 -0.5141  0.1378  0.1637
   33POPC  H11X 4405   0.960   2.517   4.322 -0.4426  0.8655  0.7603
   33POPC  H11Y 4406   1.127   2.441   4.302 -0.5284 -0.0730 -1.1785
   33POPC  C312 4407   1.073   2.575   4.144  0.2670 -0.0324  0.3630
   33POPC  H12X 4408   1.175   2.601   4.110 -1.2080  3.0130 -2.3646
   33POPC  H12Y 4409   1.015   2.669   4.153  1.1614  0.6342 -0.5846
   33POPC  C313 4410   1.003   2.473   4.052  0.1584  0.0394 -0.9598
   33POPC  H13X 4411   0.896   2.466   4.081  0.1997  0.1414 -0.7817
   33POPC  H13Y 4412   1.052   2.373   4.045  0.0056  0.0186 -1.7657
   33POPC  C314 4413   0.998   2.527   3.906  0.4766  0.1209 -0.5736
   33POPC  H14X 4414   1.104   2.506   3.878  1.2100  1.0736  1.3259
   33POPC  H14Y 4415   0.979   2.635   3.892  2.9340  0.7972  0.7425
   33POPC  C315 4416   0.904   2.454   3.813  0.4472 -0.4124 -0.2952
   33POPC  H15X 4417   0.796   2.457   3.839  0.3028  2.7059 -0.8437
   33POPC  H15Y 4418   0.932   2.347   3.801 -0.5864 -0.7048 -0.2393
   33POPC  C316 4419   0.916   2.520   3.673  0.0020 -0.4331  0.3257
   33POPC  H16X 4420   1.025   2.529   3.654 -0.1182  1.4818  0.3269
   33POPC  H16Y 4421   0.859   2.616   3.667 -3.1463 -2.2198 -1.6874
   33POPC  H16Z 4422   0.883   2.453   3.590  1.5817 -1.1387  0.2438
   34POPC     N 4423   1.379   5.512   5.759  0.5503  0.1872 -0.1935
   34POPC   C12 4424   1.289   5.587   5.853 -0.1633 -0.2332 -0.1120
   34POPC  H12A 4425   1.338   5.681   5.874 -0.3561 -0.0945 -0.2800
   34POPC  H12B 4426   1.291   5.526   5.942 -0.8518  0.9699  0.7453
   34POPC   C13 4427   1.416   5.593   5.651  0.0108 -0.2165  0.1320
   34POPC  H13A 4428   1.324   5.634   5.612  0.2157 -0.8060 -1.0222
   34POPC  H13B 4429   1.492   5.665   5.676  0.0298  0.1832 -1.0502
   34POPC  H13C 4430   1.466   5.542   5.570  0.9363 -1.4997  1.4680
   34POPC   C14 4431   1.511   5.470   5.826 -0.1629 -0.3933 -0.6901
   34POPC  H14A 4432   1.548   5.561   5.870 -2.6556  1.9143 -3.0070
   34POPC  H14B 4433   1.496   5.388   5.895  0.0928 -0.8873 -1.2162
   34POPC  H14C 4434   1.578   5.426   5.754  1.2563 -0.3481  0.5501
   34POPC   C15 4435   1.314   5.389   5.694 -0.3231  0.2038  0.1305
   34POPC  H15A 4436   1.364   5.364   5.602 -0.6864  1.8263 -0.5397
   34POPC  H15B 4437   1.214   5.401   5.657 -0.3966 -0.9821 -0.1017
   34POPC  H15C 4438   1.310   5.310   5.768 -1.0743  0.9847  0.9599
   34POPC   C11 4439   1.150   5.622   5.806  0.7158 -0.0949 -0.0575
   34POPC  H11A 4440   1.087   5.654   5.892  0.1844 -1.8400  0.2413
   34POPC  H11B 4441   1.102   5.533   5.759 -0.5899 -0.2814  1.5490
   34POPC     P 4442   1.026   5.785   5.639  0.0601  0.3458  0.3782
   34POPC   O13 4443   1.063   5.891   5.545  0.4883  0.1613  0.0106
   34POPC   O14 4444   0.920   5.821   5.735 -0.0290 -0.1629  0.8882
   34POPC   O12 4445   1.157   5.735   5.713  0.1446  0.2949  0.4583
   34POPC   O11 4446   0.988   5.653   5.561 -0.3322  0.1426  0.5138
   34POPC    C1 4447   1.077   5.596   5.466 -0.7972 -0.5621 -0.2413
   34POPC    HA 4448   1.139   5.518   5.515  1.9046  1.3454 -0.3812
   34POPC    HB 4449   1.159   5.664   5.434 -0.1196 -1.5686 -0.6871
   34POPC    C2 4450   0.998   5.552   5.344 -1.0342 -0.8653  0.5683
   34POPC    HS 4451   0.963   5.449   5.369  0.0038 -1.2154  0.6276
   34POPC   O21 4452   1.087   5.536   5.232  0.1484 -0.0712  0.4937
   34POPC   C21 4453   1.183   5.444   5.239 -0.3034 -0.3282 -0.3202
   34POPC   O22 4454   1.202   5.366   5.329 -0.2445  0.1913 -0.0136
   34POPC   C22 4455   1.262   5.450   5.105 -0.1173  0.2110 -0.4497
   34POPC   H2R 4456   1.358   5.505   5.110  0.3370 -0.4654 -1.2583
   34POPC   H2S 4457   1.200   5.494   5.024  1.2973 -0.4641 -1.9855
   34POPC    C3 4458   0.889   5.658   5.304  0.1822  0.3735 -0.2630
   34POPC    HX 4459   0.932   5.760   5.300  0.4755  0.2217 -1.1893
   34POPC    HY 4460   0.811   5.668   5.383  0.0308 -2.2278  0.0040
   34POPC   O31 4461   0.832   5.619   5.176 -0.8747 -0.0086 -0.1215
   34POPC   C31 4462   0.728   5.540   5.173  0.2284  0.3144 -0.0679
   34POPC   O32 4463   0.659   5.507   5.273 -0.0612 -0.3136  0.2305
   34POPC   C32 4464   0.696   5.515   5.022 -0.2337 -0.6232 -0.1327
   34POPC   H2X 4465   0.691   5.606   4.957  0.5223 -1.3728 -1.2802
   34POPC   H2Y 4466   0.594   5.473   5.016 -0.2023 -0.5700 -1.3226
   34POPC   C23 4467   1.284   5.300   5.063 -0.2355 -0.3551 -0.4624
   34POPC   H3R 4468   1.181   5.261   5.049 -1.2345  0.5743  3.3661
   34POPC   H3S 4469   1.346   5.251   5.140  1.9131 -0.2811 -2.0377
   34POPC   C24 4470   1.367   5.289   4.927  0.0215 -0.0111 -0.0540
   34POPC   H4R 4471   1.462   5.347   4.931 -1.4236  2.4267  0.7676
   34POPC   H4S 4472   1.302   5.338   4.851 -0.1911 -1.4197 -0.8246
   34POPC   C25 4473   1.394   5.147   4.889 -0.6689  0.4023  0.3560
   34POPC   H5R 4474   1.311   5.073   4.889  1.3951 -2.1262 -2.1463
   34POPC   H5S 4475   1.473   5.104   4.954 -2.4946  0.3633  2.6702
   34POPC   C26 4476   1.456   5.142   4.745 -0.5873 -0.0320  0.2596
   34POPC   H6R 4477   1.534   5.221   4.737 -0.6155 -0.0449 -0.1953
   34POPC   H6S 4478   1.382   5.159   4.663  0.4381  0.3220 -0.6262
   34POPC   C27 4479   1.518   5.003   4.719 -0.0520 -0.4732  0.3357
   34POPC   H7R 4480   1.446   4.920   4.736  0.4039 -0.3312  3.7272
   34POPC   H7S 4481   1.603   4.984   4.787 -0.5591 -1.9980  0.5719
   34POPC   C28 4482   1.559   5.006   4.565  0.0201  0.1031 -0.7059
   34POPC   H8R 4483   1.632   5.089   4.550  1.1980 -0.6645  0.5484
   34POPC   H8S 4484   1.463   5.013   4.510 -0.2238 -0.4383 -0.3522
   34POPC   C29 4485   1.643   4.887   4.528  0.7441  0.2561  0.0452
   34POPC   H91 4486   1.734   4.869   4.587  0.1895 -1.6694  0.4011
   34POPC  C210 4487   1.609   4.784   4.450  0.1256 -0.5288  0.4505
   34POPC  H101 4488   1.677   4.698   4.452 -2.3455 -2.5971  1.7340
   34POPC  C211 4489   1.499   4.770   4.353 -0.5082 -0.2508 -0.1629
   34POPC  H11R 4490   1.541   4.761   4.251  0.1596  1.4324 -0.0688
   34POPC  H11S 4491   1.427   4.854   4.358  0.1115  0.2375  2.0002
   34POPC  C212 4492   1.422   4.644   4.371  0.1430  0.3869  0.1711
   34POPC  H12R 4493   1.343   4.653   4.293  0.9280  2.1108 -0.4748
   34POPC  H12S 4494   1.364   4.642   4.466 -1.1046 -0.8567 -0.5703
   34POPC  C213 4495   1.505   4.519   4.343  0.0847 -0.8973  0.5639
   34POPC  H13R 4496   1.567   4.499   4.433  3.1968  1.6345 -0.8466
   34POPC  H13S 4497   1.561   4.530   4.248  0.2570 -0.8150  0.6772
   34POPC  C214 4498   1.425   4.390   4.314  0.1740  0.4477  0.0643
   34POPC  H14R 4499   1.361   4.415   4.227  2.9999  1.0108 -1.9905
   34POPC  H14S 4500   1.353   4.365   4.395  0.0921  1.2660  0.2452
   34POPC  C215 4501   1.510   4.269   4.291 -0.0290  0.2974  0.8002
   34POPC  H15R 4502   1.564   4.241   4.384  0.2161 -0.7307  0.3642
   34POPC  H15S 4503   1.588   4.298   4.218  0.2518  0.5395  1.1920
   34POPC  C216 4504   1.435   4.143   4.239  0.4839 -0.4473 -0.1061
   34POPC  H16R 4505   1.509   4.060   4.250  0.4880 -0.5246 -0.6788
   34POPC  H16S 4506   1.405   4.156   4.133 -1.2721 -0.8016  0.3196
   34POPC  C217 4507   1.312   4.115   4.314 -0.2090 -0.6320 -0.6478
   34POPC  H17R 4508   1.244   4.204   4.318 -2.5006 -2.3020 -0.1376
   34POPC  H17S 4509   1.342   4.087   4.417  3.2571 -0.2210 -1.4195
   34POPC  C218 4510   1.245   3.991   4.258  0.3812  0.0266  0.0686
   34POPC  H18R 4511   1.317   3.908   4.237 -1.2859 -1.7024  0.9187
   34POPC  H18S 4512   1.206   4.013   4.156  0.8864 -1.3393 -0.4475
   34POPC  H18T 4513   1.173   3.946   4.330 -0.3202  1.5972  0.3979
   34POPC   C33 4514   0.793   5.413   4.964 -0.3017 -0.9315  0.3205
   34POPC   H3X 4515   0.792   5.319   5.023 -0.3908 -2.5784 -2.1550
   34POPC   H3Y 4516   0.896   5.453   4.958 -1.2995  2.2644  2.1966
   34POPC   C34 4517   0.756   5.379   4.819  0.0483  0.0196 -0.1312
   34POPC   H4X 4518   0.749   5.471   4.757  0.0045  0.2408  0.1968
   34POPC   H4Y 4519   0.653   5.338   4.819 -0.1239  0.4459  0.0965
   34POPC   C35 4520   0.856   5.303   4.742 -0.2349 -0.1067 -1.2103
   34POPC   H5X 4521   0.880   5.208   4.794  1.3326  0.7247 -0.3296
   34POPC   H5Y 4522   0.946   5.368   4.749  0.8121 -1.6496  0.3175
   34POPC   C36 4523   0.826   5.281   4.594  0.3942 -0.0102 -0.2068
   34POPC   H6X 4524   0.809   5.383   4.555  2.6967  0.5639  0.1566
   34POPC   H6Y 4525   0.730   5.228   4.575  0.5082  0.0321 -0.9383
   34POPC   C37 4526   0.925   5.206   4.508 -0.2565 -0.2958 -0.5135
   34POPC   H7X 4527   1.024   5.252   4.529 -1.1460  0.8171  1.5188
   34POPC   H7Y 4528   0.901   5.231   4.402  1.1211  0.0349 -0.7703
   34POPC   C38 4529   0.927   5.055   4.527  0.2541 -0.4285 -0.1685
   34POPC   H8X 4530   0.834   5.010   4.486 -0.4239 -0.0969  0.9755
   34POPC   H8Y 4531   0.931   5.021   4.633  3.0023 -1.0726 -0.4193
   34POPC   C39 4532   1.037   4.978   4.452  0.3736  0.3821 -0.3116
   34POPC   H9X 4533   1.003   4.872   4.448 -1.0810  0.7814  0.3873
   34POPC   H9Y 4534   1.132   4.984   4.509  0.3902 -0.2379 -0.2620
   34POPC  C310 4535   1.072   5.037   4.316  0.8432  1.2234  0.4369
   34POPC  H10X 4536   1.141   5.123   4.328  0.5036  1.5044  0.3938
   34POPC  H10Y 4537   0.982   5.061   4.256 -0.6114 -1.5474  1.3359
   34POPC  C311 4538   1.148   4.936   4.226  0.0226  0.0624 -0.4832
   34POPC  H11X 4539   1.069   4.859   4.219 -1.3042  1.2870  0.5717
   34POPC  H11Y 4540   1.229   4.892   4.289 -2.1083 -1.2934  1.4542
   34POPC  C312 4541   1.183   4.979   4.088 -0.0157 -1.0618  0.4574
   34POPC  H12X 4542   1.248   5.067   4.105 -1.6576  0.2687  0.1805
   34POPC  H12Y 4543   1.093   5.004   4.027  1.0165  1.1489 -0.2444
   34POPC  C313 4544   1.268   4.868   4.028 -0.0407 -0.4099 -0.0875
   34POPC  H13X 4545   1.205   4.781   3.998  0.6465 -1.2568  0.8541
   34POPC  H13Y 4546   1.335   4.835   4.111 -0.5494  0.4914  0.7028
   34POPC  C314 4547   1.339   4.915   3.899 -0.1791 -0.0063 -0.0366
   34POPC  H14X 4548   1.397   5.006   3.926  1.5788 -1.9583  3.4842
   34POPC  H14Y 4549   1.274   4.947   3.814  3.1277 -1.9581 -3.6082
   34POPC  C315 4550   1.449   4.823   3.837  0.4201  0.6457 -0.3439
   34POPC  H15X 4551   1.517   4.792   3.920 -0.2589  1.9405  0.7383
   34POPC  H15Y 4552   1.506   4.886   3.766 -0.4886  1.3038 -0.5006
   34POPC  C316 4553   1.413   4.693   3.762  0.6056 -0.0583 -0.1564
   34POPC  H16X 4554   1.326   4.710   3.696  1.1143  1.4868 -0.4501
   34POPC  H16Y 4555   1.395   4.604   3.827 -0.5068  0.5204  0.3460
   34POPC  H16Z 4556   1.499   4.650   3.705 -0.2791 -0.8636 -0.9306
   35POPC     N 4557   4.009   5.213   6.114  0.7102  0.1387  0.4766
   35POPC   C12 4558   3.930   5.156   5.993 -0.7753 -0.7692 -0.2736
   35POPC  H12A 4559   3.843   5.110   6.038 -0.0055  0.5670  2.9004
   35POPC  H12B 4560   3.979   5.068   5.955 -1.3239 -0.8812 -0.7229
   35POPC   C13 4561   4.090   5.106   6.172 -0.7733 -0.3301 -0.5688
   35POPC  H13A 4562   4.030   5.035   6.227  0.2651 -0.6960  0.1191
   35POPC  H13B 4563   4.151   5.053   6.100  1.7169  2.0234 -0.3327
   35POPC  H13C 4564   4.169   5.142   6.235 -1.1454  1.3841 -1.0415
   35POPC   C14 4565   4.109   5.306   6.063  0.0468 -0.6918  0.3086
   35POPC  H14A 4566   4.162   5.280   5.973 -0.9393 -0.1264 -0.4596
   35POPC  H14B 4567   4.054   5.396   6.042 -1.5287 -1.8195 -0.5753
   35POPC  H14C 4568   4.186   5.329   6.136  0.0828 -0.4789  0.2051
   35POPC   C15 4569   3.917   5.277   6.209 -0.2475 -0.1491 -0.3544
   35POPC  H15A 4570   3.872   5.360   6.156  1.5570  0.7899 -0.5026
   35POPC  H15B 4571   3.963   5.334   6.288 -1.1966 -0.5484  0.5033
   35POPC  H15C 4572   3.844   5.203   6.237  0.3898 -0.6132  0.1124
   35POPC   C11 4573   3.873   5.257   5.888 -0.2141  0.3839 -0.2393
   35POPC  H11A 4574   3.805   5.195   5.826 -1.1668 -1.0047  2.0734
   35POPC  H11B 4575   3.948   5.293   5.815 -1.2981 -0.9845 -2.1012
   35POPC     P 4576   3.790   5.506   5.908 -0.4118 -0.3887 -0.0152
   35POPC   O13 4577   3.914   5.574   5.959  0.4873 -0.0298  0.1946
   35POPC   O14 4578   3.664   5.559   5.963 -0.2695 -0.3468  0.1459
   35POPC   O12 4579   3.797   5.357   5.952 -0.2994 -0.4952 -0.0551
   35POPC   O11 4580   3.786   5.505   5.749  0.2174 -0.0085  0.2398
   35POPC    C1 4581   3.910   5.508   5.666  0.4098  0.3249 -0.1270
   35POPC    HA 4582   3.923   5.415   5.607  0.6861 -0.3645  0.9846
   35POPC    HB 4583   4.005   5.506   5.724 -0.2836  0.6228  1.0555
   35POPC    C2 4584   3.915   5.639   5.583  0.7587  0.3427  0.3490
   35POPC    HS 4585   3.904   5.728   5.649 -1.0847  0.5894 -0.2619
   35POPC   O21 4586   3.808   5.639   5.491 -0.1474 -0.4377  0.0900
   35POPC   C21 4587   3.692   5.701   5.527 -0.9044  0.2688  0.2935
   35POPC   O22 4588   3.684   5.770   5.623  0.0712 -0.0671  0.3513
   35POPC   C22 4589   3.581   5.657   5.433  0.5668 -0.0678  0.1898
   35POPC   H2R 4590   3.501   5.624   5.503  0.7416 -0.1499  0.3532
   35POPC   H2S 4591   3.612   5.580   5.359  0.3654 -0.5908  0.6424
   35POPC    C3 4592   4.046   5.661   5.501 -0.6562  0.8244 -0.0445
   35POPC    HX 4593   4.130   5.641   5.570 -1.1094 -1.7852 -0.1440
   35POPC    HY 4594   4.047   5.769   5.473  1.5869  0.6170 -0.9699
   35POPC   O31 4595   4.072   5.577   5.383  0.0497 -0.1568  0.3649
   35POPC   C31 4596   4.032   5.626   5.272 -0.8128 -0.6966  0.2336
   35POPC   O32 4597   3.984   5.737   5.253  0.0923  0.2748 -0.2012
   35POPC   C32 4598   4.058   5.516   5.163  0.4475 -0.2654  0.4258
   35POPC   H2X 4599   3.955   5.480   5.141  1.0878 -0.8997 -1.8580
   35POPC   H2Y 4600   4.116   5.435   5.211 -0.7684 -1.1494  0.4482
   35POPC   C23 4601   3.527   5.774   5.339 -0.1780 -0.7142  0.4570
   35POPC   H3R 4602   3.506   5.864   5.401 -2.9909 -0.8610 -0.1532
   35POPC   H3S 4603   3.426   5.749   5.302 -0.4217 -0.4848  0.9530
   35POPC   C24 4604   3.608   5.816   5.218 -0.0936  0.5667 -0.1189
   35POPC   H4R 4605   3.714   5.815   5.250 -0.1098 -1.3938  0.0013
   35POPC   H4S 4606   3.571   5.915   5.182 -1.4816  1.0221  2.3167
   35POPC   C25 4607   3.594   5.721   5.102 -0.1354  0.0356 -1.0947
   35POPC   H5R 4608   3.498   5.734   5.046 -0.4752 -0.7705 -0.7177
   35POPC   H5S 4609   3.587   5.619   5.146 -0.5170  0.7362  0.5519
   35POPC   C26 4610   3.704   5.736   4.997  0.4045 -0.1304 -0.6363
   35POPC   H6R 4611   3.804   5.714   5.040 -0.1872  1.2031  1.5567
   35POPC   H6S 4612   3.697   5.843   4.966 -2.1571 -0.3233 -0.9277
   35POPC   C27 4613   3.678   5.642   4.881  0.6152 -0.3289  0.7016
   35POPC   H7R 4614   3.570   5.617   4.878 -0.3103  2.9534  1.4272
   35POPC   H7S 4615   3.716   5.539   4.897  3.3020 -0.5684 -5.0012
   35POPC   C28 4616   3.744   5.669   4.745 -0.1751 -0.6251  0.2691
   35POPC   H8R 4617   3.845   5.709   4.766 -1.4573  2.1078  1.8813
   35POPC   H8S 4618   3.703   5.743   4.673  1.6018  0.4612  0.3274
   35POPC   C29 4619   3.760   5.540   4.664  0.5540 -0.9524  0.3396
   35POPC   H91 4620   3.837   5.472   4.701  1.2618 -0.3352  0.0255
   35POPC  C210 4621   3.692   5.513   4.551  0.1715 -0.6005  0.3603
   35POPC  H101 4622   3.708   5.419   4.497 -2.6733 -0.9030 -0.0843
   35POPC  C211 4623   3.586   5.595   4.481  0.2797 -0.0188 -0.3583
   35POPC  H11R 4624   3.622   5.598   4.376 -0.5352 -4.6025 -1.0102
   35POPC  H11S 4625   3.573   5.698   4.521 -0.2249  0.3074 -1.3330
   35POPC  C212 4626   3.450   5.523   4.460  0.8724 -1.0592 -0.1971
   35POPC  H12R 4627   3.462   5.435   4.394 -0.6734  0.1864 -2.2325
   35POPC  H12S 4628   3.391   5.600   4.406  1.7187  1.1967  1.8328
   35POPC  C213 4629   3.381   5.490   4.593  0.7770  0.1410 -0.4201
   35POPC  H13R 4630   3.450   5.443   4.666 -0.7372  1.4759  2.0064
   35POPC  H13S 4631   3.300   5.419   4.566 -0.5749  1.6166 -0.4168
   35POPC  C214 4632   3.318   5.609   4.657 -0.2646 -0.0341 -0.7804
   35POPC  H14R 4633   3.260   5.653   4.573 -1.0641 -1.0755 -0.7930
   35POPC  H14S 4634   3.393   5.683   4.691 -0.3031 -0.4396  0.2360
   35POPC  C215 4635   3.219   5.581   4.774 -0.1621  0.3204 -0.2692
   35POPC  H15R 4636   3.138   5.509   4.747  1.0305 -0.7076 -1.2267
   35POPC  H15S 4637   3.192   5.682   4.812  3.2948  0.7626  1.3998
   35POPC  C216 4638   3.300   5.523   4.895  0.1395  0.8727  0.1379
   35POPC  H16R 4639   3.364   5.596   4.947  1.3919 -0.1481  0.0802
   35POPC  H16S 4640   3.372   5.448   4.855 -2.3747 -0.6031 -2.0616
   35POPC  C217 4641   3.211   5.470   5.011 -0.6654  0.1758 -0.6100
   35POPC  H17R 4642   3.141   5.393   4.970  0.3839 -0.0709 -2.0178
   35POPC  H17S 4643   3.154   5.556   5.051  1.7366  2.5328 -1.9737
   35POPC  C218 4644   3.302   5.409   5.123 -0.1249 -0.0251  0.2910
   35POPC  H18R 4645   3.372   5.486   5.163 -0.7653 -0.2258  1.8432
   35POPC  H18S 4646   3.360   5.330   5.069 -2.0101 -0.6592 -0.9138
   35POPC  H18T 4647   3.234   5.371   5.202  1.1537  2.5569  2.8058
   35POPC   C33 4648   4.129   5.571   5.035 -0.4512 -0.1987  0.2452
   35POPC   H3X 4649   4.214   5.641   5.051 -2.5815  2.4562  0.6450
   35POPC   H3Y 4650   4.071   5.637   4.968  0.9514  0.4428 -0.3741
   35POPC   C34 4651   4.185   5.456   4.950  0.2462  0.0300  0.5572
   35POPC   H4X 4652   4.100   5.390   4.922 -0.2720  0.8010  0.2782
   35POPC   H4Y 4653   4.257   5.400   5.014  0.8701  2.4431  2.1005
   35POPC   C35 4654   4.259   5.509   4.821  0.6187  0.2753  0.3585
   35POPC   H5X 4655   4.331   5.587   4.853  3.0160 -2.3638  1.9150
   35POPC   H5Y 4656   4.181   5.542   4.750  1.3728 -1.2546 -1.2713
   35POPC   C36 4657   4.331   5.403   4.738  0.6738  0.0480  0.5821
   35POPC   H6X 4658   4.418   5.362   4.793  0.4127 -1.1617  0.1126
   35POPC   H6Y 4659   4.355   5.465   4.649 -1.1996 -2.2219 -1.6413
   35POPC   C37 4660   4.254   5.269   4.701 -0.8917  0.1312  0.4885
   35POPC   H7X 4661   4.198   5.222   4.785 -3.0150 -0.5387 -1.1945
   35POPC   H7Y 4662   4.328   5.201   4.655  1.3142  0.9018  2.6786
   35POPC   C38 4663   4.137   5.303   4.604 -0.4750  0.3625  0.4039
   35POPC   H8X 4664   4.170   5.381   4.533 -1.4824  0.9763  0.5851
   35POPC   H8Y 4665   4.054   5.351   4.661  1.0991  1.8664  1.5205
   35POPC   C39 4666   4.080   5.192   4.517 -0.0572  0.2570 -0.0676
   35POPC   H9X 4667   4.025   5.246   4.437 -0.3072 -0.2935 -0.2722
   35POPC   H9Y 4668   4.015   5.116   4.564 -0.3542 -0.4113 -1.4817
   35POPC  C310 4669   4.191   5.117   4.437  0.1225  0.5864  0.3232
   35POPC  H10X 4670   4.256   5.053   4.501 -0.7941  1.2626  1.9910
   35POPC  H10Y 4671   4.253   5.201   4.400  2.6701 -0.9105  0.9691
   35POPC  C311 4672   4.140   5.045   4.312 -0.2057 -0.8486  0.5535
   35POPC  H11X 4673   4.087   5.115   4.244  1.9999  0.1403 -0.2299
   35POPC  H11Y 4674   4.067   4.964   4.335  0.9919 -1.8807  0.7861
   35POPC  C312 4675   4.253   4.971   4.246  0.8216  0.0674 -0.0560
   35POPC  H12X 4676   4.310   4.887   4.292 -0.3140 -1.7276 -1.7447
   35POPC  H12Y 4677   4.332   5.044   4.219 -0.8665  2.2313  0.5634
   35POPC  C313 4678   4.199   4.905   4.118 -0.1348 -0.6298 -0.0309
   35POPC  H13X 4679   4.275   4.858   4.053  0.7822 -0.9515  1.2299
   35POPC  H13Y 4680   4.160   4.998   4.070  0.5487 -0.3289 -0.0169
   35POPC  C314 4681   4.080   4.809   4.129  0.1373  0.7987 -0.2688
   35POPC  H14X 4682   4.001   4.844   4.198 -0.9155  0.6407 -1.3567
   35POPC  H14Y 4683   4.113   4.714   4.176 -0.7731  0.7394  0.2778
   35POPC  C315 4684   4.014   4.772   3.987 -0.5844 -0.3816 -0.1215
   35POPC  H15X 4685   3.965   4.869   3.963 -0.1499 -0.1222  0.0269
   35POPC  H15Y 4686   3.933   4.698   4.003  0.4994 -1.1614  2.3444
   35POPC  C316 4687   4.110   4.739   3.861  0.1170 -0.3100  0.0545
   35POPC  H16X 4688   4.194   4.811   3.856 -0.2180  0.1018  0.2208
   35POPC  H16Y 4689   4.056   4.735   3.763 -0.3861 -0.9442  0.3484
   35POPC  H16Z 4690   4.159   4.640   3.867  1.2330  0.1813 -0.5337
   36POPC     N 4691   5.635   5.212   6.126  0.4266  0.4378  0.2171
   36POPC   C12 4692   5.606   5.148   5.992  0.4007 -0.1993  0.1504
   36POPC  H12A 4693   5.507   5.107   6.006 -1.0330  1.5412 -3.5372
   36POPC  H12B 4694   5.668   5.061   5.974  0.7314 -0.2323  1.3741
   36POPC   C13 4695   5.594   5.122   6.244 -0.3939 -0.0122  0.1675
   36POPC  H13A 4696   5.646   5.028   6.244  1.9507  1.1573 -1.6676
   36POPC  H13B 4697   5.597   5.175   6.338 -0.1838  0.3194 -0.0227
   36POPC  H13C 4698   5.494   5.089   6.221  0.2995 -1.7916 -0.4351
   36POPC   C14 4699   5.785   5.235   6.141  0.1272 -0.3404 -0.9107
   36POPC  H14A 4700   5.822   5.307   6.070  0.6019 -0.7243 -1.0597
   36POPC  H14B 4701   5.813   5.260   6.243  1.2062 -2.7649 -0.5334
   36POPC  H14C 4702   5.839   5.146   6.112 -2.1390 -1.1576 -3.0266
   36POPC   C15 4703   5.558   5.337   6.135  0.3521 -0.1543  0.1569
   36POPC  H15A 4704   5.456   5.332   6.100 -0.0803  0.7837  1.2538
   36POPC  H15B 4705   5.608   5.407   6.070 -0.0121  1.1068  1.1974
   36POPC  H15C 4706   5.551   5.377   6.235  0.1034 -0.5984  0.3208
   36POPC   C11 4707   5.615   5.236   5.864 -0.0072 -0.1056  0.3487
   36POPC  H11A 4708   5.546   5.323   5.874  0.0702 -0.0690  0.5628
   36POPC  H11B 4709   5.567   5.178   5.783  1.0844 -0.9730  0.2968
   36POPC     P 4710   5.864   5.192   5.792 -0.0203  0.0517 -0.0843
   36POPC   O13 4711   5.863   5.069   5.875  0.1169  0.2950  0.3519
   36POPC   O14 4712   5.977   5.290   5.792  0.1961 -0.5663 -0.5263
   36POPC   O12 4713   5.746   5.283   5.842 -0.4204  0.5476  0.6688
   36POPC   O11 4714   5.817   5.158   5.641 -0.2297  0.7136  0.1999
   36POPC    C1 4715   5.775   5.260   5.549 -0.0882  0.1975 -0.2145
   36POPC    HA 4716   5.828   5.357   5.553  0.3699  0.1383 -2.9519
   36POPC    HB 4717   5.665   5.269   5.560 -0.3478  1.1860 -2.9263
   36POPC    C2 4718   5.776   5.206   5.402  0.7623  0.3126  0.3170
   36POPC    HS 4719   5.717   5.113   5.396  0.6288  0.4651 -1.5684
   36POPC   O21 4720   5.906   5.176   5.356  0.3007 -0.2569 -0.3699
   36POPC   C21 4721   5.994   5.283   5.348 -0.1134 -0.1351  0.3268
   36POPC   O22 4722   5.972   5.398   5.375  0.6654  0.1125  0.0738
   36POPC   C22 4723   6.135   5.230   5.312  0.0366 -0.8086 -0.0257
   36POPC   H2R 4724   6.132   5.131   5.261  1.1090 -1.0419  0.3469
   36POPC   H2S 4725   6.186   5.218   5.410  1.4253 -1.7925 -0.8280
   36POPC    C3 4726   5.705   5.312   5.314 -0.4741 -0.9551  0.9386
   36POPC    HX 4727   5.718   5.418   5.346  1.2288 -0.6487 -0.5313
   36POPC    HY 4728   5.596   5.293   5.321 -0.9166  0.9575  0.1579
   36POPC   O31 4729   5.740   5.312   5.171 -0.0559 -0.3700 -0.0367
   36POPC   C31 4730   5.721   5.426   5.104 -0.2710 -0.1612  0.1727
   36POPC   O32 4731   5.680   5.530   5.151  0.3532 -0.3237 -0.3809
   36POPC   C32 4732   5.738   5.409   4.953 -0.3750  0.2091 -0.1151
   36POPC   H2X 4733   5.673   5.327   4.916  3.5126 -2.1503 -2.4414
   36POPC   H2Y 4734   5.844   5.380   4.936 -0.5059 -0.1550 -0.3128
   36POPC   C23 4735   6.228   5.331   5.238  0.4626  0.5006 -0.0882
   36POPC   H3R 4736   6.236   5.429   5.289 -0.7841  0.2562  0.6175
   36POPC   H3S 4737   6.183   5.342   5.137  1.0295 -1.6678 -0.6336
   36POPC   C24 4738   6.369   5.276   5.215  0.0226 -0.4760 -0.2012
   36POPC   H4R 4739   6.374   5.166   5.207  0.4027 -0.4986  0.3207
   36POPC   H4S 4740   6.424   5.293   5.310 -1.6653  2.3142  0.4045
   36POPC   C25 4741   6.453   5.354   5.106  0.5513  0.0023  0.6739
   36POPC   H5R 4742   6.456   5.462   5.132 -1.6930  0.1713  0.3886
   36POPC   H5S 4743   6.399   5.355   5.009  1.3329  2.2500  0.1904
   36POPC   C26 4744   6.600   5.305   5.080  0.3279 -0.5199 -0.2122
   36POPC   H6R 4745   6.669   5.331   5.163 -0.6732 -2.6109  1.3496
   36POPC   H6S 4746   6.627   5.365   4.990 -2.1436  1.4260  0.1975
   36POPC   C27 4747   6.620   5.150   5.062 -0.3135 -0.3928 -0.5089
   36POPC   H7R 4748   6.539   5.128   4.989 -0.4427 -0.5419 -0.3203
   36POPC   H7S 4749   6.612   5.099   5.160 -0.3824 -2.4260 -1.5232
   36POPC   C28 4750   6.750   5.117   4.991  0.1347 -0.8637 -0.8827
   36POPC   H8R 4751   6.837   5.128   5.060 -0.6507 -0.9847  0.1486
   36POPC   H8S 4752   6.761   5.193   4.911  1.0008  0.4892  0.4717
   36POPC   C29 4753   6.753   4.976   4.935 -0.1942 -0.2633 -0.4741
   36POPC   H91 4754   6.695   4.897   4.985  2.6226 -3.9882 -2.6398
   36POPC  C210 4755   6.782   4.943   4.812  0.2884 -0.0121  0.1662
   36POPC  H101 4756   6.792   4.838   4.780  1.1241  0.1892 -0.2643
   36POPC  C211 4757   6.830   5.044   4.702  0.1999  1.0481 -0.1748
   36POPC  H11R 4758   6.933   5.011   4.678 -0.5193 -0.4042 -1.4535
   36POPC  H11S 4759   6.820   5.152   4.724 -1.7015  0.6978  0.8955
   36POPC  C212 4760   6.749   5.014   4.570  0.5262  0.2026 -0.2211
   36POPC  H12R 4761   6.641   5.019   4.594  0.6692  1.9419  0.2122
   36POPC  H12S 4762   6.762   4.908   4.540  1.3715  1.4169 -4.8351
   36POPC  C213 4763   6.795   5.104   4.459  0.3736  0.1715 -0.6538
   36POPC  H13R 4764   6.903   5.109   4.438  0.0086  0.7691 -2.5469
   36POPC  H13S 4765   6.765   5.207   4.488  3.4328  1.3999 -1.4864
   36POPC  C214 4766   6.725   5.060   4.335 -0.3836 -0.5493 -0.3442
   36POPC  H14R 4767   6.647   5.135   4.308  1.2082  0.9491 -0.9465
   36POPC  H14S 4768   6.671   4.965   4.353  0.4209 -1.0977 -0.7756
   36POPC  C215 4769   6.821   5.044   4.218  0.8098  0.8628  0.7873
   36POPC  H15R 4770   6.768   4.987   4.138  1.4345 -1.1628  1.7300
   36POPC  H15S 4771   6.915   4.989   4.239  2.7377  3.1780 -1.1898
   36POPC  C216 4772   6.871   5.172   4.160  0.1525  0.1409  0.3444
   36POPC  H16R 4773   6.955   5.147   4.091  0.7375  3.3406 -0.2522
   36POPC  H16S 4774   6.911   5.243   4.236 -0.7008  0.8686  0.1318
   36POPC  C217 4775   6.776   5.249   4.071  0.0451 -0.1469  0.3601
   36POPC  H17R 4776   6.816   5.352   4.062 -1.2786  0.2986 -0.7691
   36POPC  H17S 4777   6.670   5.272   4.097 -0.7186 -0.4136 -2.2101
   36POPC  C218 4778   6.775   5.187   3.920  0.4748 -0.1292 -0.2936
   36POPC  H18R 4779   6.879   5.187   3.880  0.6515  1.0210  0.1433
   36POPC  H18S 4780   6.704   5.243   3.855  0.2889  0.9475  0.8137
   36POPC  H18T 4781   6.735   5.083   3.921 -1.4353  0.5716  0.8450
   36POPC   C33 4782   5.702   5.531   4.868  0.1121  0.2822 -0.1480
   36POPC   H3X 4783   5.782   5.605   4.889  0.6372 -0.6211  1.1653
   36POPC   H3Y 4784   5.600   5.563   4.897  0.3358 -1.6546  3.4669
   36POPC   C34 4785   5.706   5.500   4.716  0.4917 -0.0215 -0.4898
   36POPC   H4X 4786   5.630   5.420   4.706  0.8227 -0.1643 -2.0635
   36POPC   H4Y 4787   5.800   5.445   4.695  1.6639  1.8838 -0.4468
   36POPC   C35 4788   5.678   5.623   4.632  0.7595  0.2852  0.6147
   36POPC   H5X 4789   5.664   5.590   4.527  0.1793 -2.2904  1.4323
   36POPC   H5Y 4790   5.760   5.698   4.627 -0.1398  1.3495  1.2675
   36POPC   C36 4791   5.550   5.702   4.656  0.4509  0.0759 -0.4448
   36POPC   H6X 4792   5.557   5.762   4.749  0.1162  0.2353 -0.5214
   36POPC   H6Y 4793   5.464   5.631   4.663  0.1674  0.4543 -0.0711
   36POPC   C37 4794   5.528   5.810   4.555  0.6493  0.5463  0.6602
   36POPC   H7X 4795   5.513   5.754   4.461 -1.2798  0.5629  0.9173
   36POPC   H7Y 4796   5.611   5.882   4.541  2.0436 -1.2326 -0.6843
   36POPC   C38 4797   5.396   5.891   4.580 -0.3274 -0.2503 -0.2336
   36POPC   H8X 4798   5.384   5.958   4.492  0.2762 -1.2927 -1.1369
   36POPC   H8Y 4799   5.418   5.953   4.669 -1.3827  0.4255 -0.4165
   36POPC   C39 4800   5.262   5.805   4.599 -0.1917  0.1726  0.1374
   36POPC   H9X 4801   5.174   5.870   4.617 -0.6380 -0.3781 -0.0636
   36POPC   H9Y 4802   5.278   5.751   4.695  0.6970 -3.0507 -1.6870
   36POPC  C310 4803   5.223   5.701   4.493  0.7788 -0.2429 -0.1911
   36POPC  H10X 4804   5.118   5.665   4.499  0.9172 -0.3139  3.3527
   36POPC  H10Y 4805   5.288   5.613   4.512 -0.5241 -0.5990  3.3246
   36POPC  C311 4806   5.243   5.743   4.347 -0.1734 -0.1584 -0.0878
   36POPC  H11X 4807   5.347   5.777   4.329  0.7658 -1.9268  1.7069
   36POPC  H11Y 4808   5.183   5.837   4.345  1.5023  0.9612 -0.3749
   36POPC  C312 4809   5.199   5.644   4.242  0.7030  0.4552  0.5859
   36POPC  H12X 4810   5.089   5.655   4.232  0.5680  0.7471  2.0756
   36POPC  H12Y 4811   5.224   5.539   4.268 -3.3274 -0.6449  0.7225
   36POPC  C313 4812   5.256   5.682   4.104 -0.0286 -0.3373 -1.0909
   36POPC  H13X 4813   5.357   5.724   4.118  0.6991 -2.0070 -1.0927
   36POPC  H13Y 4814   5.191   5.759   4.058 -0.3100 -1.0851 -1.9836
   36POPC  C314 4815   5.250   5.563   4.012 -0.2789 -0.4759  0.2339
   36POPC  H14X 4816   5.144   5.541   3.988 -0.8723  2.6277 -0.4125
   36POPC  H14Y 4817   5.281   5.470   4.065  1.9287 -2.2376 -3.7414
   36POPC  C315 4818   5.332   5.581   3.886 -0.2552  0.2043 -0.8364
   36POPC  H15X 4819   5.435   5.594   3.927 -1.2146  2.4703  1.1446
   36POPC  H15Y 4820   5.311   5.680   3.840 -1.0809 -0.3927 -1.7823
   36POPC  C316 4821   5.309   5.477   3.789  0.8112  0.2816 -0.3172
   36POPC  H16X 4822   5.206   5.481   3.746  0.3452  1.4315  0.8333
   36POPC  H16Y 4823   5.323   5.382   3.844 -2.2462 -0.4826 -0.6392
   36POPC  H16Z 4824   5.378   5.476   3.702 -0.7590  1.3179 -1.6484
   37POPC     N 4825   3.761   1.836   6.274  0.4777 -0.7845  0.0302
   37POPC   C12 4826   3.804   1.944   6.175  0.4019 -0.1907  0.5842
   37POPC  H12A 4827   3.884   1.904   6.114  0.4875 -0.8932  1.1481
   37POPC  H12B 4828   3.854   2.020   6.234 -2.1682 -0.7679  3.7970
   37POPC   C13 4829   3.659   1.904   6.360 -0.6058 -0.2612  0.0693
   37POPC  H13A 4830   3.582   1.939   6.292  1.6251  1.0756 -1.9252
   37POPC  H13B 4831   3.605   1.838   6.427  0.8124 -0.9796  0.5468
   37POPC  H13C 4832   3.706   1.979   6.421 -2.0041  0.1920  0.6265
   37POPC   C14 4833   3.695   1.727   6.209  0.0350 -0.6071  0.0753
   37POPC  H14A 4834   3.637   1.660   6.271 -2.5777 -0.2178 -1.7700
   37POPC  H14B 4835   3.622   1.773   6.144  0.3462  1.2973  1.0030
   37POPC  H14C 4836   3.757   1.667   6.144 -3.3102 -3.3149 -0.9181
   37POPC   C15 4837   3.877   1.784   6.359 -0.5447 -0.6942 -0.6217
   37POPC  H15A 4838   3.945   1.740   6.288 -1.3303 -2.8190 -0.1383
   37POPC  H15B 4839   3.838   1.704   6.420 -0.7818 -0.7658 -0.8607
   37POPC  H15C 4840   3.922   1.859   6.422  0.5066 -1.7699 -0.0593
   37POPC   C11 4841   3.699   2.007   6.078 -0.3831 -0.4086 -0.7305
   37POPC  H11A 4842   3.629   1.927   6.045  0.0479 -0.6704 -1.0111
   37POPC  H11B 4843   3.755   2.035   5.987 -0.6689 -0.8001 -1.0306
   37POPC     P 4844   3.680   2.245   6.181 -0.3562 -0.0381 -0.4656
   37POPC   O13 4845   3.785   2.223   6.284  0.5761  0.0189  0.1600
   37POPC   O14 4846   3.578   2.342   6.230  0.0372 -0.1089  0.0134
   37POPC   O12 4847   3.616   2.109   6.135  0.2754 -0.0177  0.1921
   37POPC   O11 4848   3.736   2.295   6.045 -0.0526 -0.3920  0.1279
   37POPC    C1 4849   3.657   2.346   5.941 -0.2163  0.4137  0.1279
   37POPC    HA 4850   3.648   2.456   5.952  2.5630  0.5689  1.6005
   37POPC    HB 4851   3.555   2.302   5.950  0.4796 -1.0938  1.0339
   37POPC    C2 4852   3.709   2.295   5.799  0.5571  0.1474  0.1957
   37POPC    HS 4853   3.736   2.187   5.801 -0.9360 -0.2441  0.4474
   37POPC   O21 4854   3.815   2.382   5.757  0.6010  0.1455  0.0229
   37POPC   C21 4855   3.941   2.341   5.787 -0.0885  0.0647  0.6374
   37POPC   O22 4856   3.963   2.242   5.851 -0.6341 -0.5919 -0.1074
   37POPC   C22 4857   4.045   2.444   5.742 -0.1620 -0.0560  0.2497
   37POPC   H2R 4858   4.138   2.424   5.801 -1.2295  0.8229  2.3227
   37POPC   H2S 4859   4.019   2.544   5.781  1.7350  0.1239  1.1692
   37POPC    C3 4860   3.603   2.311   5.690 -0.0161 -0.3993  0.3627
   37POPC    HX 4861   3.599   2.419   5.663  0.2670 -0.3675  0.4359
   37POPC    HY 4862   3.510   2.268   5.733  0.6429 -1.4468  0.7762
   37POPC   O31 4863   3.655   2.244   5.571  0.7536 -0.7883  0.8292
   37POPC   C31 4864   3.619   2.119   5.544 -0.4664 -0.0011  0.0688
   37POPC   O32 4865   3.532   2.058   5.604 -0.1862 -0.1239  0.0142
   37POPC   C32 4866   3.712   2.058   5.439  0.4357  0.0184 -0.5072
   37POPC   H2X 4867   3.713   1.947   5.447  1.2996 -0.0657 -1.5178
   37POPC   H2Y 4868   3.818   2.091   5.446  0.9160 -1.6345  0.5269
   37POPC   C23 4869   4.078   2.433   5.592 -0.2117  0.1686 -0.3369
   37POPC   H3R 4870   4.140   2.518   5.557 -0.9455  1.0001  0.3486
   37POPC   H3S 4871   3.986   2.441   5.530 -1.6710  2.7156  1.9407
   37POPC   C24 4872   4.143   2.301   5.556 -0.1902  0.7140  0.0032
   37POPC   H4R 4873   4.082   2.212   5.583  1.4285  0.1974  2.2150
   37POPC   H4S 4874   4.234   2.303   5.620  1.3000  0.6213 -2.0175
   37POPC   C25 4875   4.178   2.285   5.405  0.4840  0.4291 -0.9437
   37POPC   H5R 4876   4.264   2.215   5.402 -0.9141 -1.4975  1.1425
   37POPC   H5S 4877   4.192   2.388   5.364 -0.5805  0.8768 -0.2362
   37POPC   C26 4878   4.066   2.221   5.322 -0.1747 -0.2762  0.0780
   37POPC   H6R 4879   3.980   2.291   5.335  0.2213 -0.1519  2.6225
   37POPC   H6S 4880   4.034   2.120   5.356 -3.4087  0.8411  0.7544
   37POPC   C27 4881   4.113   2.202   5.176  0.4005 -0.2221 -0.0812
   37POPC   H7R 4882   4.111   2.097   5.139 -0.8720 -0.2742  0.0866
   37POPC   H7S 4883   4.221   2.225   5.183  0.4349 -0.6277  0.7860
   37POPC   C28 4884   4.045   2.302   5.077 -0.2513 -0.6907 -0.1304
   37POPC   H8R 4885   4.115   2.314   4.991  0.8172 -4.6200  0.0105
   37POPC   H8S 4886   4.038   2.404   5.120 -1.2776 -0.3400 -1.0601
   37POPC   C29 4887   3.909   2.275   5.032  0.4061 -0.1539 -0.1026
   37POPC   H91 4888   3.826   2.305   5.098 -0.2069 -0.3319 -0.7779
   37POPC  C210 4889   3.881   2.240   4.905 -0.1067 -0.1124 -0.3359
   37POPC  H101 4890   3.775   2.225   4.880 -0.2760 -2.6469  1.4712
   37POPC  C211 4891   3.991   2.223   4.801  0.6061  0.0925  0.5926
   37POPC  H11R 4892   4.072   2.161   4.846 -1.0034 -2.0565  0.7069
   37POPC  H11S 4893   4.024   2.326   4.774 -2.4697  1.2336  0.8224
   37POPC  C212 4894   3.939   2.151   4.671  0.3062 -0.2162  0.1321
   37POPC  H12R 4895   3.834   2.178   4.648  0.3380  1.1607  1.4454
   37POPC  H12S 4896   3.936   2.043   4.695 -0.4201 -0.6005 -1.5523
   37POPC  C213 4897   4.030   2.158   4.547  0.5118  0.0834 -0.0702
   37POPC  H13R 4898   4.133   2.125   4.573  0.6257  0.1545 -0.4219
   37POPC  H13S 4899   4.051   2.264   4.523  0.5403 -0.1773 -1.2377
   37POPC  C214 4900   3.977   2.089   4.424  0.5051  0.3070  0.0246
   37POPC  H14R 4901   3.875   2.127   4.400  1.3123  1.9960 -0.8794
   37POPC  H14S 4902   3.985   1.978   4.421  2.2433  0.4201 -2.0985
   37POPC  C215 4903   4.045   2.122   4.295  0.0346  0.9496 -0.5364
   37POPC  H15R 4904   4.154   2.106   4.310 -0.3191 -0.3461  0.9106
   37POPC  H15S 4905   4.032   2.231   4.273  0.7924  1.4967  1.5192
   37POPC  C216 4906   3.988   2.028   4.184  0.5350  0.3795 -0.2210
   37POPC  H16R 4907   3.877   2.025   4.177  0.6355 -0.2710 -2.1533
   37POPC  H16S 4908   4.020   1.924   4.205  0.1363  0.4754  0.9223
   37POPC  C217 4909   4.026   2.053   4.032  0.1240 -0.3966 -0.0293
   37POPC  H17R 4910   4.134   2.073   4.021  0.1593 -1.0753 -1.0646
   37POPC  H17S 4911   3.989   2.152   4.000  0.2898  0.2788  1.7464
   37POPC  C218 4912   3.977   1.942   3.947 -0.1464  0.4848  0.9011
   37POPC  H18R 4913   4.009   1.843   3.985  1.7458  1.0068  0.7758
   37POPC  H18S 4914   4.032   1.957   3.851  2.9186  0.8304  2.5816
   37POPC  H18T 4915   3.866   1.949   3.937 -0.1376  0.6133  0.8859
   37POPC   C33 4916   3.671   2.090   5.293  0.4639 -0.0446  0.1012
   37POPC   H3X 4917   3.751   2.070   5.218  1.7552  0.0846  1.3921
   37POPC   H3Y 4918   3.659   2.201   5.287 -1.5983 -0.2187  0.2685
   37POPC   C34 4919   3.537   2.010   5.258 -0.0455  0.2461  0.1467
   37POPC   H4X 4920   3.477   2.006   5.351 -1.1234 -1.7848 -0.5592
   37POPC   H4Y 4921   3.569   1.907   5.231 -0.8793 -0.4178  1.5772
   37POPC   C35 4922   3.460   2.067   5.138  0.0061  0.1975  0.1937
   37POPC   H5X 4923   3.411   2.161   5.174 -0.7409 -0.9262  2.3088
   37POPC   H5Y 4924   3.369   2.009   5.111 -0.2483 -1.1733  3.4700
   37POPC   C36 4925   3.536   2.080   5.003 -0.6652  0.6081  0.2075
   37POPC   H6X 4926   3.601   1.991   4.986  1.5612  2.4707 -1.7669
   37POPC   H6Y 4927   3.612   2.159   5.019 -0.2382 -0.0298  1.3999
   37POPC   C37 4928   3.444   2.089   4.885 -0.0977 -0.5458 -0.1016
   37POPC   H7X 4929   3.398   2.190   4.887 -1.3353 -1.0139 -1.9083
   37POPC   H7Y 4930   3.351   2.028   4.893 -2.2019  2.3884 -0.5040
   37POPC   C38 4931   3.520   2.068   4.753  0.0964  0.4192  0.0760
   37POPC   H8X 4932   3.538   1.959   4.740 -0.5899  0.4731 -1.5619
   37POPC   H8Y 4933   3.616   2.123   4.762 -0.8478  1.8322  2.3770
   37POPC   C39 4934   3.425   2.107   4.637  0.2779 -0.4864 -0.5273
   37POPC   H9X 4935   3.401   2.214   4.658  1.8927 -0.3204  0.6698
   37POPC   H9Y 4936   3.330   2.051   4.648 -1.2003  1.8786 -0.5561
   37POPC  C310 4937   3.472   2.075   4.498 -0.4437 -0.0289 -0.2162
   37POPC  H10X 4938   3.569   2.121   4.467  0.1415  1.0512  2.8762
   37POPC  H10Y 4939   3.391   2.093   4.423  0.6981 -0.7042 -1.6691
   37POPC  C311 4940   3.504   1.924   4.486  0.0411  0.1436 -0.6051
   37POPC  H11X 4941   3.415   1.859   4.495  0.3152 -0.8051 -3.5212
   37POPC  H11Y 4942   3.578   1.887   4.559  0.6092  0.8426 -0.8080
   37POPC  C312 4943   3.570   1.914   4.348  0.6136  0.5687  0.7112
   37POPC  H12X 4944   3.672   1.958   4.350  1.9130 -2.2128  0.3467
   37POPC  H12Y 4945   3.507   1.965   4.271 -1.9442 -0.3991  2.0215
   37POPC  C313 4946   3.579   1.765   4.297 -0.3688 -0.3288  0.5464
   37POPC  H13X 4947   3.474   1.738   4.272  0.1607 -1.6293 -0.4047
   37POPC  H13Y 4948   3.604   1.704   4.387  3.0624 -0.2984 -0.2396
   37POPC  C314 4949   3.688   1.752   4.192  0.5047  0.1252 -0.0387
   37POPC  H14X 4950   3.785   1.757   4.246  0.6209 -3.5161  0.3288
   37POPC  H14Y 4951   3.671   1.832   4.116  0.7400  0.0318 -0.1923
   37POPC  C315 4952   3.704   1.617   4.124  0.0683 -0.5415 -0.1380
   37POPC  H15X 4953   3.623   1.610   4.049 -0.7711 -3.2814  0.8783
   37POPC  H15Y 4954   3.692   1.533   4.196 -1.9626 -0.0687  0.1441
   37POPC  C316 4955   3.839   1.603   4.057  0.3139  0.0832  0.6136
   37POPC  H16X 4956   3.924   1.599   4.129  0.5945  0.5892  0.3179
   37POPC  H16Y 4957   3.852   1.693   3.994 -1.4955  0.7082  1.0770
   37POPC  H16Z 4958   3.843   1.509   3.997 -0.4638 -0.4477  1.3637
   38POPC     N 4959   6.592   2.229   5.812  0.1134  0.0768  0.6160
   38POPC   C12 4960   6.705   2.150   5.867  0.4025 -0.7721  0.0708
   38POPC  H12A 4961   6.719   2.185   5.968  0.7142  0.7523 -0.4660
   38POPC  H12B 4962   6.797   2.171   5.814  0.6838 -1.5842  0.2298
   38POPC   C13 4963   6.533   2.166   5.686 -0.7264 -0.2175 -0.8767
   38POPC  H13A 4964   6.603   2.112   5.624 -2.1925 -1.9543 -1.1300
   38POPC  H13B 4965   6.453   2.095   5.705  0.8282 -1.7216  0.4492
   38POPC  H13C 4966   6.498   2.245   5.622  2.7411  1.4478 -0.9095
   38POPC   C14 4967   6.487   2.241   5.916  0.8037  0.3230  0.0331
   38POPC  H14A 4968   6.532   2.269   6.009 -0.6579 -1.8438  1.5041
   38POPC  H14B 4969   6.406   2.310   5.894 -0.1043 -0.9554 -0.8416
   38POPC  H14C 4970   6.437   2.145   5.917  1.8162 -0.2117  1.4209
   38POPC   C15 4971   6.640   2.365   5.756  0.1292  0.6239  0.1612
   38POPC  H15A 4972   6.560   2.408   5.698 -0.7215 -0.4436  0.5112
   38POPC  H15B 4973   6.724   2.347   5.690  0.2404  1.5234  0.0380
   38POPC  H15C 4974   6.661   2.437   5.834  2.1673 -0.6209  0.8488
   38POPC   C11 4975   6.695   1.995   5.871  0.7629  0.4622 -0.5863
   38POPC  H11A 4976   6.610   1.969   5.938  1.4733  0.8172  0.4761
   38POPC  H11B 4977   6.777   1.950   5.931  0.5681  0.0313 -0.6397
   38POPC     P 4978   6.806   1.864   5.662 -0.2538  0.1879 -0.2171
   38POPC   O13 4979   6.838   1.731   5.722  0.1761 -0.4590  0.3688
   38POPC   O14 4980   6.916   1.967   5.654 -0.6982 -0.1706  0.2599
   38POPC   O12 4981   6.682   1.926   5.748  1.2985  0.2622 -0.4127
   38POPC   O11 4982   6.740   1.835   5.519  0.0099  0.4081  0.2758
   38POPC    C1 4983   6.710   1.946   5.435 -0.0468 -0.0258 -0.4261
   38POPC    HA 4984   6.783   2.030   5.438 -0.8055  0.6271 -0.1048
   38POPC    HB 4985   6.613   1.994   5.458 -1.4905 -2.1186 -1.7850
   38POPC    C2 4986   6.696   1.908   5.282 -0.4534 -0.4572  0.0897
   38POPC    HS 4987   6.685   1.993   5.212  3.0645  1.1707  1.2586
   38POPC   O21 4988   6.597   1.810   5.265 -0.1130  0.0447 -0.0350
   38POPC   C21 4989   6.479   1.849   5.254  0.3291  0.1038 -0.4205
   38POPC   O22 4990   6.442   1.965   5.267 -0.5671 -0.2307  0.2758
   38POPC   C22 4991   6.385   1.731   5.212 -0.2649  0.5509  0.1140
   38POPC   H2R 4992   6.284   1.759   5.250  0.6804  0.2604  3.0969
   38POPC   H2S 4993   6.411   1.638   5.266  0.6039  0.7655  0.0828
   38POPC    C3 4994   6.830   1.847   5.225 -0.9352 -0.2464 -0.5847
   38POPC    HX 4995   6.818   1.827   5.117  1.5031 -0.2532 -0.9128
   38POPC    HY 4996   6.847   1.755   5.286 -0.7260  0.7456  0.9206
   38POPC   O31 4997   6.944   1.941   5.234 -0.5958  0.1786  0.1148
   38POPC   C31 4998   7.065   1.871   5.230  0.0691  0.0940  0.2692
   38POPC   O32 4999   7.066   1.752   5.218  0.1039 -0.0030  0.0523
   38POPC   C32 5000   7.182   1.970   5.213  0.3897  0.2018 -0.0685
   38POPC   H2X 5001   7.270   1.949   5.278 -0.0587  2.3992  1.3450
   38POPC   H2Y 5002   7.146   2.071   5.244  1.2162  1.0249 -1.6799
   38POPC   C23 5003   6.387   1.714   5.066 -0.1072 -0.6236 -0.1237
   38POPC   H3R 5004   6.484   1.675   5.030 -0.1798  0.9634 -2.2428
   38POPC   H3S 5005   6.353   1.803   5.008 -2.6522 -0.6155  1.2373
   38POPC   C24 5006   6.294   1.593   5.019  0.2549  0.6234 -0.0944
   38POPC   H4R 5007   6.187   1.620   5.026  0.2516  0.7441 -0.6147
   38POPC   H4S 5008   6.319   1.509   5.087 -0.1745  0.3882 -0.2289
   38POPC   C25 5009   6.321   1.557   4.879 -0.9446 -0.3019  0.3905
   38POPC   H5R 5010   6.426   1.521   4.869 -0.6947  0.8699 -1.6585
   38POPC   H5S 5011   6.316   1.643   4.809 -1.6809 -0.8635 -0.2718
   38POPC   C26 5012   6.236   1.434   4.832 -0.1922 -0.4798 -0.2080
   38POPC   H6R 5013   6.133   1.474   4.823  1.1237  3.7747  1.2516
   38POPC   H6S 5014   6.231   1.355   4.910 -0.9507  0.2973  0.5489
   38POPC   C27 5015   6.263   1.367   4.693  0.2593 -0.4946  0.0894
   38POPC   H7R 5016   6.198   1.277   4.688  0.3863 -0.6648  1.1064
   38POPC   H7S 5017   6.369   1.331   4.694  1.0321  1.3966 -2.8975
   38POPC   C28 5018   6.241   1.471   4.588  0.2221 -0.1749  0.1994
   38POPC   H8R 5019   6.312   1.552   4.618 -0.2565  0.1088  0.5821
   38POPC   H8S 5020   6.143   1.521   4.605  0.1229 -0.6085  0.9520
   38POPC   C29 5021   6.255   1.427   4.445 -0.8167 -0.7797 -0.3317
   38POPC   H91 5022   6.355   1.455   4.408  0.2681  0.1191  2.9493
   38POPC  C210 5023   6.156   1.373   4.375 -0.8533 -0.4791  0.0439
   38POPC  H101 5024   6.169   1.357   4.267  0.5433 -1.5152  0.3369
   38POPC  C211 5025   6.011   1.359   4.422 -0.6115  1.1652  0.1512
   38POPC  H11R 5026   5.940   1.430   4.374 -2.4555 -0.7736 -0.1224
   38POPC  H11S 5027   6.006   1.360   4.533  0.3609 -0.4569  0.2270
   38POPC  C212 5028   5.971   1.216   4.393  0.2519  0.5536 -0.3334
   38POPC  H12R 5029   6.000   1.143   4.471 -0.4918  0.4698 -0.1285
   38POPC  H12S 5030   6.015   1.182   4.297  0.7952  1.4201 -0.3925
   38POPC  C213 5031   5.818   1.213   4.373 -0.9745  0.6655  0.1863
   38POPC  H13R 5032   5.796   1.294   4.301 -1.2508 -0.6593 -1.2623
   38POPC  H13S 5033   5.766   1.220   4.471  0.2530 -0.6712  0.9883
   38POPC  C214 5034   5.773   1.075   4.324 -0.4893  0.0460  0.1283
   38POPC  H14R 5035   5.806   0.992   4.390  4.5584 -0.0281 -2.0129
   38POPC  H14S 5036   5.812   1.059   4.221 -2.3648  0.7776 -0.7303
   38POPC  C215 5037   5.618   1.069   4.304 -0.0661  0.4699  0.4729
   38POPC  H15R 5038   5.588   0.981   4.242 -1.1791  1.0214  0.2110
   38POPC  H15S 5039   5.584   1.159   4.249  0.3764 -0.5803 -1.6480
   38POPC  C216 5040   5.537   1.070   4.434  0.1588 -0.2779 -0.5079
   38POPC  H16R 5041   5.427   1.077   4.417 -0.1349 -2.2604  0.2078
   38POPC  H16S 5042   5.569   1.162   4.487 -1.4555  0.4982 -0.8090
   38POPC  C217 5043   5.560   0.944   4.524 -0.1032 -0.4152 -0.4569
   38POPC  H17R 5044   5.667   0.938   4.552 -1.2867 -1.6432  4.9030
   38POPC  H17S 5045   5.513   0.855   4.475 -0.2831 -0.0310 -0.9863
   38POPC  C218 5046   5.500   0.950   4.664 -0.8244  0.6943  0.5897
   38POPC  H18R 5047   5.392   0.973   4.676 -1.3449 -1.3571  0.1626
   38POPC  H18S 5048   5.551   1.025   4.729  0.0043  3.1357 -2.6352
   38POPC  H18T 5049   5.523   0.851   4.709  0.8166  0.5399 -0.5072
   38POPC   C33 5050   7.233   1.962   5.063  0.7036  0.1911 -0.2009
   38POPC   H3X 5051   7.310   2.042   5.055 -0.4037  1.3458  0.3004
   38POPC   H3Y 5052   7.149   1.991   4.997  0.8118 -0.0893 -0.4640
   38POPC   C34 5053   7.303   1.842   5.011 -0.8336  1.0132 -0.1900
   38POPC   H4X 5054   7.237   1.755   4.990  1.3302 -0.3379 -1.8774
   38POPC   H4Y 5055   7.379   1.805   5.082 -1.2173 -1.2234 -0.8768
   38POPC   C35 5056   7.385   1.885   4.888  1.3361  0.4454 -0.4012
   38POPC   H5X 5057   7.444   1.975   4.917  0.6128  1.8261 -2.8716
   38POPC   H5Y 5058   7.314   1.904   4.805  1.5426  0.0829 -0.6635
   38POPC   C36 5059   7.487   1.779   4.836  0.2163 -0.2582  0.2835
   38POPC   H6X 5060   7.434   1.686   4.807 -0.0637  0.4667 -1.6363
   38POPC   H6Y 5061   7.555   1.753   4.920  2.5423  0.2805 -1.3486
   38POPC   C37 5062   7.573   1.818   4.721  0.2890 -0.3442  0.5789
   38POPC   H7X 5063   7.633   1.732   4.685 -1.1358 -0.4839 -1.7157
   38POPC   H7Y 5064   7.638   1.893   4.770  0.5482  0.0986 -0.4218
   38POPC   C38 5065   7.498   1.875   4.603  0.2679  0.3947  0.5491
   38POPC   H8X 5066   7.577   1.907   4.532  0.1705  1.6679  0.9855
   38POPC   H8Y 5067   7.438   1.965   4.629  0.5194 -0.0767  2.9620
   38POPC   C39 5068   7.398   1.771   4.539  0.5162 -0.8874 -0.0024
   38POPC   H9X 5069   7.313   1.746   4.607 -0.1897  0.6067 -0.3011
   38POPC   H9Y 5070   7.457   1.680   4.515 -0.7669 -1.6342 -0.4641
   38POPC  C310 5071   7.335   1.829   4.413 -0.2617  0.5744 -0.3337
   38POPC  H10X 5072   7.416   1.872   4.350  1.3798  3.5072  3.3922
   38POPC  H10Y 5073   7.270   1.917   4.435  0.8530  1.4451 -0.4592
   38POPC  C311 5074   7.258   1.721   4.338  0.4552  0.6985  0.1700
   38POPC  H11X 5075   7.224   1.764   4.241 -1.1672 -1.5593 -0.3588
   38POPC  H11Y 5076   7.168   1.702   4.401 -0.0258  1.0904 -0.3851
   38POPC  C312 5077   7.330   1.588   4.306 -0.0393  0.6707  0.8265
   38POPC  H12X 5078   7.374   1.536   4.394  3.6864  0.5831 -0.8881
   38POPC  H12Y 5079   7.412   1.628   4.243  1.5109 -0.7768  1.8446
   38POPC  C313 5080   7.242   1.492   4.221 -0.4700 -0.3545  0.2025
   38POPC  H13X 5081   7.308   1.413   4.178  2.0953  1.2106  1.0132
   38POPC  H13Y 5082   7.194   1.543   4.135 -1.6123 -2.3214 -0.3890
   38POPC  C314 5083   7.130   1.425   4.310  0.2087  0.0815 -0.4821
   38POPC  H14X 5084   7.051   1.388   4.242 -0.7361 -0.3442  0.8088
   38POPC  H14Y 5085   7.083   1.502   4.376  0.6856  1.5389 -1.7758
   38POPC  C315 5086   7.187   1.310   4.399 -0.0982 -0.3572  0.0947
   38POPC  H15X 5087   7.242   1.354   4.485  0.3568  1.3594 -1.0238
   38POPC  H15Y 5088   7.255   1.259   4.327 -2.1706  1.2337 -3.2228
   38POPC  C316 5089   7.070   1.219   4.447  0.3431 -0.1556 -0.5422
   38POPC  H16X 5090   7.112   1.118   4.468  0.4444  0.1241  0.6403
   38POPC  H16Y 5091   6.990   1.196   4.374 -1.8566 -0.5811  1.8766
   38POPC  H16Z 5092   7.032   1.267   4.539 -0.3344 -0.3339 -0.7292
   39POPC     N 5093   4.980   7.767   5.898 -0.6325  0.1581 -0.1802
   39POPC   C12 5094   5.063   7.638   5.875  0.3886 -0.1163  0.3415
   39POPC  H12A 5095   5.010   7.554   5.917 -0.3582 -0.6731 -1.6159
   39POPC  H12B 5096   5.149   7.641   5.941 -0.5939 -1.6884  1.7806
   39POPC   C13 5097   5.041   7.870   5.816  0.3891 -0.1138  0.0754
   39POPC  H13A 5098   5.003   7.969   5.837 -1.0574 -1.1600  2.9966
   39POPC  H13B 5099   5.148   7.870   5.827  0.7004 -4.0859 -1.2750
   39POPC  H13C 5100   5.015   7.851   5.712 -2.3520  2.8456  0.0447
   39POPC   C14 5101   4.840   7.746   5.857 -0.2543 -0.0513 -0.3060
   39POPC  H14A 5102   4.794   7.843   5.847 -0.5040 -0.3448 -2.2795
   39POPC  H14B 5103   4.839   7.698   5.761 -0.8844  0.0200 -0.3340
   39POPC  H14C 5104   4.786   7.676   5.919  1.6525 -0.9159  0.4620
   39POPC   C15 5105   4.991   7.795   6.041  0.3323 -0.2272 -0.3231
   39POPC  H15A 5106   4.925   7.734   6.100  0.2072 -0.9342 -1.1726
   39POPC  H15B 5107   4.961   7.898   6.055 -0.0594 -0.4122  0.2227
   39POPC  H15C 5108   5.096   7.791   6.064  0.0319 -2.1492  0.8739
   39POPC   C11 5109   5.119   7.601   5.737  0.8147  0.0330  0.6539
   39POPC  H11A 5110   5.035   7.634   5.671  0.8632 -1.7874 -0.4126
   39POPC  H11B 5111   5.131   7.490   5.729 -2.0101 -0.2699 -0.6720
   39POPC     P 5112   5.376   7.635   5.784  0.1446  0.1693  0.2254
   39POPC   O13 5113   5.342   7.590   5.922 -0.0328  0.7736 -0.4654
   39POPC   O14 5114   5.475   7.743   5.777  0.2043 -0.2055 -0.1675
   39POPC   O12 5115   5.240   7.670   5.707 -0.2467 -0.4974 -0.1522
   39POPC   O11 5116   5.435   7.510   5.709 -0.3801 -0.1307 -0.5117
   39POPC    C1 5117   5.457   7.497   5.575 -0.1165 -0.6821 -0.2176
   39POPC    HA 5118   5.367   7.523   5.517 -0.2231 -0.9973 -0.1963
   39POPC    HB 5119   5.475   7.388   5.565 -2.3062 -0.9425 -2.2992
   39POPC    C2 5120   5.582   7.562   5.519 -0.6947  1.0115  1.1093
   39POPC    HS 5121   5.669   7.529   5.581 -0.0087  2.3467  0.9033
   39POPC   O21 5122   5.574   7.704   5.522 -0.2172 -0.1973  0.0440
   39POPC   C21 5123   5.689   7.766   5.528  0.7757  0.2956 -0.1969
   39POPC   O22 5124   5.802   7.711   5.540  0.2340  0.0041  0.0761
   39POPC   C22 5125   5.675   7.917   5.514 -0.1240  0.0952 -0.0837
   39POPC   H2R 5126   5.762   7.968   5.561 -0.1742  0.7850 -0.7254
   39POPC   H2S 5127   5.588   7.957   5.569 -1.3117  0.4284 -2.1255
   39POPC    C3 5128   5.594   7.513   5.365 -0.6611  0.1148 -0.3852
   39POPC    HX 5129   5.679   7.568   5.319  0.4973  0.3953  1.9231
   39POPC    HY 5130   5.499   7.544   5.317 -1.6537 -2.0879  0.0051
   39POPC   O31 5131   5.615   7.361   5.362 -0.1569  0.0818 -0.6278
   39POPC   C31 5132   5.747   7.328   5.394 -0.5928  0.0936 -1.2352
   39POPC   O32 5133   5.836   7.408   5.414  0.1400 -0.7552  0.3710
   39POPC   C32 5134   5.775   7.177   5.389  0.3578  0.4499 -0.2182
   39POPC   H2X 5135   5.683   7.114   5.383  0.2186  0.1871  2.9496
   39POPC   H2Y 5136   5.827   7.151   5.483  0.8619  1.4546 -0.2091
   39POPC   C23 5137   5.676   7.963   5.364  0.8435 -0.7210 -0.0916
   39POPC   H3R 5138   5.739   7.893   5.305  0.8319 -0.5763 -0.2764
   39POPC   H3S 5139   5.717   8.065   5.345  1.7577 -1.4523 -2.4269
   39POPC   C24 5140   5.540   7.963   5.281 -0.4413 -0.3445 -0.5925
   39POPC   H4R 5141   5.467   8.030   5.331  0.4188  1.2674 -1.4281
   39POPC   H4S 5142   5.498   7.860   5.286 -1.1507 -0.0304  0.2260
   39POPC   C25 5143   5.563   7.987   5.128  0.1844 -0.0999 -0.6436
   39POPC   H5R 5144   5.657   7.943   5.086  0.6025 -0.4893  0.6709
   39POPC   H5S 5145   5.550   8.093   5.097 -0.0356 -0.8229 -3.3412
   39POPC   C26 5146   5.450   7.909   5.059 -0.8224 -0.5241  0.1422
   39POPC   H6R 5147   5.455   7.804   5.097  0.0977 -0.1328  1.1532
   39POPC   H6S 5148   5.474   7.916   4.951  3.3007  0.8012  0.9968
   39POPC   C27 5149   5.315   7.963   5.091 -0.4354  0.1641  0.6181
   39POPC   H7R 5150   5.301   8.069   5.062 -4.6562  0.0079  1.4790
   39POPC   H7S 5151   5.298   7.952   5.200  3.1206  0.9578  1.3968
   39POPC   C28 5152   5.201   7.886   5.009 -0.7410 -0.0304  1.1612
   39POPC   H8R 5153   5.103   7.918   5.051 -1.6986 -1.0778 -0.1452
   39POPC   H8S 5154   5.214   7.776   5.024  2.7096 -0.0896 -1.0781
   39POPC   C29 5155   5.201   7.931   4.867  0.3650  0.2579 -0.3167
   39POPC   H91 5156   5.177   8.038   4.855  0.4289  0.0405 -3.2861
   39POPC  C210 5157   5.228   7.853   4.763  0.6968  0.2909 -0.9407
   39POPC  H101 5158   5.246   7.898   4.664  2.5633 -1.1020 -1.2911
   39POPC  C211 5159   5.267   7.705   4.771  0.0753 -0.6488  0.4127
   39POPC  H11R 5160   5.175   7.650   4.800 -1.8034  1.1012 -1.7978
   39POPC  H11S 5161   5.349   7.697   4.845  1.7496 -0.1752 -1.2971
   39POPC  C212 5162   5.319   7.651   4.643  0.4509 -0.0748 -0.0573
   39POPC  H12R 5163   5.410   7.706   4.613  0.6810 -1.2579 -1.6451
   39POPC  H12S 5164   5.239   7.654   4.566 -0.7555  0.5305  1.1574
   39POPC  C213 5165   5.365   7.507   4.664  0.3423 -0.2265  0.4687
   39POPC  H13R 5166   5.297   7.446   4.728  1.3439 -2.3433 -0.3970
   39POPC  H13S 5167   5.455   7.515   4.729  1.0789  0.5375 -0.5945
   39POPC  C214 5168   5.423   7.436   4.532  0.1735  0.5373 -0.0078
   39POPC  H14R 5169   5.472   7.350   4.582 -1.2149  0.2684  0.9351
   39POPC  H14S 5170   5.504   7.493   4.482  0.1149  1.3841  0.8255
   39POPC  C215 5171   5.313   7.381   4.438  0.5209  0.2659 -0.1290
   39POPC  H15R 5172   5.275   7.465   4.376  0.8728  0.4957 -0.0415
   39POPC  H15S 5173   5.226   7.336   4.490 -0.5028 -2.1447 -3.6093
   39POPC  C216 5174   5.364   7.269   4.347 -0.4266  0.1792 -0.1715
   39POPC  H16R 5175   5.390   7.188   4.418 -0.1370  1.5826  1.4066
   39POPC  H16S 5176   5.458   7.291   4.291  1.4590  0.8745  2.9786
   39POPC  C217 5177   5.270   7.235   4.229 -0.7168 -1.1438  0.3170
   39POPC  H17R 5178   5.231   7.322   4.170  1.1041 -0.5812 -0.1408
   39POPC  H17S 5179   5.180   7.194   4.280 -0.7984  0.7218  1.7884
   39POPC  C218 5180   5.335   7.132   4.132  0.2768 -0.0183 -1.1978
   39POPC  H18R 5181   5.414   7.182   4.071 -0.5578  0.9499 -1.5093
   39POPC  H18S 5182   5.255   7.080   4.075 -1.3156  0.8566  0.1568
   39POPC  H18T 5183   5.382   7.049   4.189 -1.7817 -1.5639 -1.6568
   39POPC   C33 5184   5.881   7.155   5.271 -0.0512  0.0012  0.0566
   39POPC   H3X 5185   5.947   7.067   5.286  1.8172  1.1485 -1.0665
   39POPC   H3Y 5186   5.950   7.240   5.288  0.9449 -1.4151  4.1817
   39POPC   C34 5187   5.828   7.134   5.128  0.2151 -0.0167 -0.6924
   39POPC   H4X 5188   5.891   7.199   5.063  0.0273  0.0105 -0.8471
   39POPC   H4Y 5189   5.726   7.179   5.127  0.1515 -0.0705 -3.1364
   39POPC   C35 5190   5.831   6.986   5.079  0.4752 -0.6090 -0.5091
   39POPC   H5X 5191   5.777   6.935   5.161  0.4069  2.5050  1.5261
   39POPC   H5Y 5192   5.940   6.963   5.074  0.7931  0.6849  0.1319
   39POPC   C36 5193   5.753   6.959   4.943 -0.8047 -0.3771 -0.2418
   39POPC   H6X 5194   5.648   6.989   4.965 -0.8962 -1.0459  0.2639
   39POPC   H6Y 5195   5.775   6.852   4.922  0.1977  0.0090 -1.2426
   39POPC   C37 5196   5.801   7.049   4.825 -0.5068  0.4056  0.5821
   39POPC   H7X 5197   5.831   6.976   4.747 -2.9569 -0.7691  0.6611
   39POPC   H7Y 5198   5.887   7.116   4.847  0.2523 -0.0152 -0.9729
   39POPC   C38 5199   5.693   7.139   4.760  0.2696 -0.9076 -0.6079
   39POPC   H8X 5200   5.735   7.241   4.755 -1.9334  0.0799 -0.2564
   39POPC   H8Y 5201   5.598   7.155   4.815  1.8142  1.0057  1.7058
   39POPC   C39 5202   5.661   7.091   4.619  0.4429  0.2470  0.4851
   39POPC   H9X 5203   5.749   7.095   4.551 -0.9811 -1.5795 -1.6041
   39POPC   H9Y 5204   5.583   7.155   4.572 -1.1970 -1.0216  1.3796
   39POPC  C310 5205   5.591   6.948   4.611  0.5552 -0.6026  0.1784
   39POPC  H10X 5206   5.523   6.934   4.697 -0.7377  1.7536 -0.3591
   39POPC  H10Y 5207   5.672   6.872   4.615  1.8105  0.5585 -1.4980
   39POPC  C311 5208   5.514   6.928   4.481 -0.5991 -0.4260 -0.2914
   39POPC  H11X 5209   5.581   6.919   4.393  0.0922 -0.5784  0.2433
   39POPC  H11Y 5210   5.447   7.016   4.477  1.1279  1.2111  2.8156
   39POPC  C312 5211   5.426   6.804   4.478 -0.2823  0.3103  1.1146
   39POPC  H12X 5212   5.384   6.781   4.578 -1.5301 -0.0236  0.5390
   39POPC  H12Y 5213   5.494   6.719   4.453 -0.3119  0.1550  1.5586
   39POPC  C313 5214   5.301   6.810   4.390 -0.4599 -0.2303 -0.0057
   39POPC  H13X 5215   5.270   6.916   4.380  0.8134  0.1273 -0.3749
   39POPC  H13Y 5216   5.220   6.751   4.438 -0.9525 -0.0894 -0.6568
   39POPC  C314 5217   5.313   6.744   4.249  0.7035 -0.7204 -0.8177
   39POPC  H14X 5218   5.356   6.643   4.266  3.2379  0.4301  0.1722
   39POPC  H14Y 5219   5.387   6.799   4.186  0.7907  0.0562 -0.0513
   39POPC  C315 5220   5.179   6.729   4.178  0.0535 -0.4303 -0.2459
   39POPC  H15X 5221   5.123   6.821   4.153 -2.1476 -1.5944  0.1549
   39POPC  H15Y 5222   5.117   6.681   4.257 -0.1382  1.2270  0.6657
   39POPC  C316 5223   5.190   6.630   4.063 -0.2500  0.4068  0.4794
   39POPC  H16X 5224   5.096   6.618   4.004  1.2101  1.5268 -2.2014
   39POPC  H16Y 5225   5.218   6.530   4.104 -1.5151 -1.1138 -2.0481
   39POPC  H16Z 5226   5.265   6.659   3.987 -0.8855  5.4621  1.4466
   40POPC     N 5227   1.703   4.344   6.260 -0.1738  0.3512 -0.4387
   40POPC   C12 5228   1.725   4.272   6.131 -0.2638 -0.1099 -0.2287
   40POPC  H12A 5229   1.804   4.199   6.142  1.9270  2.0125 -0.7875
   40POPC  H12B 5230   1.750   4.344   6.054 -0.7812  2.5829  1.9735
   40POPC   C13 5231   1.826   4.397   6.320 -0.0929  0.6306  0.4256
   40POPC  H13A 5232   1.911   4.332   6.338  0.9742  2.0133  0.5820
   40POPC  H13B 5233   1.873   4.471   6.257  1.7055 -0.0121  0.9305
   40POPC  H13C 5234   1.803   4.445   6.414  0.8961  1.8988  0.0382
   40POPC   C14 5235   1.614   4.457   6.232  0.0493  0.2902  0.1006
   40POPC  H14A 5236   1.533   4.434   6.165  0.7713  3.8312 -2.2668
   40POPC  H14B 5237   1.571   4.491   6.325 -2.7578  0.0599 -1.0346
   40POPC  H14C 5238   1.664   4.543   6.189 -0.4601 -0.5836 -2.3786
   40POPC   C15 5239   1.649   4.255   6.366  0.5915 -0.3109 -0.5137
   40POPC  H15A 5240   1.659   4.295   6.466 -1.6386  0.8732 -0.7271
   40POPC  H15B 5241   1.699   4.159   6.362  1.7642  0.3062 -1.6437
   40POPC  H15C 5242   1.546   4.238   6.340  0.2454  0.6252  0.2103
   40POPC   C11 5243   1.600   4.205   6.071 -0.0009 -0.2430  0.5325
   40POPC  H11A 5244   1.557   4.150   6.157  0.5180 -1.6687 -0.0784
   40POPC  H11B 5245   1.620   4.131   5.990 -0.9270  1.1301 -1.0303
   40POPC     P 5246   1.512   4.365   5.889  0.4263 -0.3890  0.0358
   40POPC   O13 5247   1.641   4.441   5.892  0.0437  0.5786 -0.2631
   40POPC   O14 5248   1.388   4.449   5.873 -0.1947 -0.1485  0.4486
   40POPC   O12 5249   1.501   4.295   6.020  0.2337 -0.0892 -0.6094
   40POPC   O11 5250   1.516   4.249   5.780  0.3578  0.7542 -0.5701
   40POPC    C1 5251   1.413   4.146   5.790  0.4589 -0.4305  0.8932
   40POPC    HA 5252   1.327   4.174   5.854  1.3027  0.8681  1.5054
   40POPC    HB 5253   1.459   4.056   5.836  3.1254  0.9930  1.1951
   40POPC    C2 5254   1.354   4.112   5.648  0.4100  0.6715  0.2251
   40POPC    HS 5255   1.253   4.069   5.667  0.4455  0.3565 -0.2793
   40POPC   O21 5256   1.442   4.022   5.580  0.7836 -0.4108  0.0076
   40POPC   C21 5257   1.371   3.933   5.511  0.5823 -0.4859  0.2198
   40POPC   O22 5258   1.250   3.933   5.501  0.2887  0.3776  0.1350
   40POPC   C22 5259   1.466   3.839   5.455  0.3465 -0.2196  0.6894
   40POPC   H2R 5260   1.556   3.810   5.514  0.9709  0.4670  0.0981
   40POPC   H2S 5261   1.511   3.882   5.363  0.8203 -2.9461 -0.4611
   40POPC    C3 5262   1.321   4.238   5.562 -0.5603 -0.8154 -0.0531
   40POPC    HX 5263   1.415   4.272   5.514  0.1506 -0.8594  1.2636
   40POPC    HY 5264   1.287   4.321   5.628  2.0671  0.0569  0.3299
   40POPC   O31 5265   1.238   4.219   5.450  0.5165 -0.3385  0.3293
   40POPC   C31 5266   1.105   4.210   5.475  0.6819  0.1424 -0.0456
   40POPC   O32 5267   1.053   4.227   5.589 -0.4637 -0.7484 -0.1615
   40POPC   C32 5268   1.027   4.182   5.341  0.1823 -0.1134  0.3167
   40POPC   H2X 5269   1.017   4.263   5.265  0.3124 -1.0348 -0.7202
   40POPC   H2Y 5270   0.924   4.162   5.376 -0.1233 -0.2164 -0.6178
   40POPC   C23 5271   1.392   3.708   5.400 -0.5937  0.7321  0.4118
   40POPC   H3R 5272   1.281   3.718   5.397 -0.8475 -1.1077  1.6388
   40POPC   H3S 5273   1.410   3.623   5.469  2.5648  2.1821  1.5687
   40POPC   C24 5274   1.452   3.670   5.268 -0.3533 -0.4976 -0.0805
   40POPC   H4R 5275   1.563   3.661   5.263 -0.3454 -0.7466  0.4958
   40POPC   H4S 5276   1.438   3.742   5.184  0.7321  0.2136  0.3192
   40POPC   C25 5277   1.403   3.534   5.222 -0.5509  0.6479  0.3616
   40POPC   H5R 5278   1.300   3.553   5.184 -0.9538 -0.5609  0.8219
   40POPC   H5S 5279   1.410   3.470   5.312 -1.0283  0.9157  0.5941
   40POPC   C26 5280   1.474   3.477   5.096 -0.0367 -0.0836 -0.1580
   40POPC   H6R 5281   1.436   3.373   5.086 -0.0098  0.0114 -1.3609
   40POPC   H6S 5282   1.581   3.473   5.127  0.3523 -2.3375 -1.5810
   40POPC   C27 5283   1.468   3.561   4.966 -0.2604  0.4204 -0.4427
   40POPC   H7R 5284   1.511   3.659   4.993 -0.8966  0.5774  0.0356
   40POPC   H7S 5285   1.360   3.570   4.943 -0.3269 -1.0376 -0.8271
   40POPC   C28 5286   1.544   3.491   4.851 -0.8345  0.9398 -1.4414
   40POPC   H8R 5287   1.480   3.408   4.813  1.3233 -2.2280  1.2518
   40POPC   H8S 5288   1.641   3.448   4.885 -1.1791  0.6145 -0.8401
   40POPC   C29 5289   1.572   3.598   4.754  0.7894 -0.6565 -0.2850
   40POPC   H91 5290   1.679   3.625   4.751  0.8351 -0.8046 -3.4520
   40POPC  C210 5291   1.492   3.644   4.658  0.1366 -0.3727 -0.6225
   40POPC  H101 5292   1.546   3.708   4.588  0.9598  0.9963  1.1828
   40POPC  C211 5293   1.345   3.619   4.623  0.9376 -0.5595 -0.4731
   40POPC  H11R 5294   1.297   3.712   4.585  0.4164 -1.5562 -2.3735
   40POPC  H11S 5295   1.293   3.574   4.710 -1.7840 -0.0647 -1.7316
   40POPC  C212 5296   1.352   3.506   4.510 -0.3930 -0.2663  0.0329
   40POPC  H12R 5297   1.256   3.449   4.514 -1.0513  0.8329  0.2484
   40POPC  H12S 5298   1.436   3.434   4.524 -0.0803 -0.0030 -0.4522
   40POPC  C213 5299   1.377   3.571   4.371  0.6219 -0.1198 -0.7194
   40POPC  H13R 5300   1.481   3.609   4.374  0.5045  0.7212 -3.6781
   40POPC  H13S 5301   1.307   3.655   4.351 -0.7652 -0.7192  1.2523
   40POPC  C214 5302   1.364   3.464   4.272  0.0113  0.6578  0.1372
   40POPC  H14R 5303   1.260   3.427   4.274 -0.0090  0.7158  0.1484
   40POPC  H14S 5304   1.429   3.381   4.309 -2.5154 -0.8762  1.4431
   40POPC  C215 5305   1.403   3.492   4.125 -0.0586  0.2527 -0.1936
   40POPC  H15R 5306   1.510   3.521   4.125  0.7738 -2.4960  0.3772
   40POPC  H15S 5307   1.339   3.580   4.104  1.2599  1.7503  1.7784
   40POPC  C216 5308   1.375   3.384   4.019 -0.5570  0.1009  0.3337
   40POPC  H16R 5309   1.266   3.376   4.000 -0.9094  0.6610  1.9655
   40POPC  H16S 5310   1.404   3.286   4.063 -1.1414 -0.1960  0.0726
   40POPC  C217 5311   1.446   3.406   3.884  0.3171 -0.5205 -0.1132
   40POPC  H17R 5312   1.551   3.424   3.917 -0.3426  0.4947  1.5042
   40POPC  H17S 5313   1.420   3.506   3.844  0.5384  0.8459  2.8915
   40POPC  C218 5314   1.429   3.298   3.772  0.2455 -0.0052 -0.0886
   40POPC  H18R 5315   1.328   3.304   3.726  0.1146  1.9408  0.3520
   40POPC  H18S 5316   1.446   3.198   3.816 -0.8043 -1.1575 -2.1288
   40POPC  H18T 5317   1.512   3.293   3.698  1.4555  0.6805  1.1869
   40POPC   C33 5318   1.070   4.049   5.278 -0.3922 -0.4022 -0.2649
   40POPC   H3X 5319   1.027   3.965   5.337 -1.5097  1.4319  1.6379
   40POPC   H3Y 5320   1.179   4.037   5.265 -0.7909 -1.3171 -3.9287
   40POPC   C34 5321   1.017   4.031   5.140 -0.2956 -0.1017  0.6078
   40POPC   H4X 5322   1.016   4.130   5.090 -1.2861  0.9036  2.4918
   40POPC   H4Y 5323   0.911   3.998   5.134  0.0517 -0.9490 -2.4045
   40POPC   C35 5324   1.105   3.931   5.058  0.4090 -0.4505 -0.4503
   40POPC   H5X 5325   1.188   4.002   5.035 -0.6376  1.1027  0.3468
   40POPC   H5Y 5326   1.072   3.913   4.953 -0.2709  1.5258 -0.6136
   40POPC   C36 5327   1.170   3.813   5.125 -0.2900 -0.4019 -0.2737
   40POPC   H6X 5328   1.242   3.846   5.202  0.4144 -0.0388 -1.0693
   40POPC   H6Y 5329   1.228   3.758   5.047  1.9382  0.4967  0.6901
   40POPC   C37 5330   1.075   3.721   5.197 -0.4327 -0.2546 -0.3692
   40POPC   H7X 5331   1.027   3.779   5.279 -0.4108 -0.3459 -0.2902
   40POPC   H7Y 5332   1.146   3.647   5.241  1.5531  2.2633  0.9843
   40POPC   C38 5333   0.966   3.663   5.101 -0.2839  0.0647 -0.5321
   40POPC   H8X 5334   1.018   3.624   5.011 -2.1083 -0.7599 -1.2775
   40POPC   H8Y 5335   0.900   3.749   5.077  0.7688  1.2762  0.7233
   40POPC   C39 5336   0.890   3.552   5.169  0.7066  0.2826  0.5002
   40POPC   H9X 5337   0.828   3.606   5.244 -1.8623 -1.0044 -0.5700
   40POPC   H9Y 5338   0.953   3.481   5.226 -1.5819  0.0518  2.9750
   40POPC  C310 5339   0.806   3.479   5.071  0.1162  0.2576  0.5424
   40POPC  H10X 5340   0.869   3.427   4.995 -0.6525 -1.4222  0.9918
   40POPC  H10Y 5341   0.756   3.558   5.012  0.4220 -0.7326 -1.1234
   40POPC  C311 5342   0.710   3.385   5.138  0.0722  0.2766  0.0289
   40POPC  H11X 5343   0.622   3.445   5.169  0.3834  0.6048  0.2728
   40POPC  H11Y 5344   0.763   3.338   5.224  0.3037  0.9866  0.2796
   40POPC  C312 5345   0.652   3.269   5.052  0.2615  0.1093 -0.2660
   40POPC  H12X 5346   0.571   3.227   5.116 -2.0957  1.6380 -2.0716
   40POPC  H12Y 5347   0.722   3.184   5.040 -1.4836 -1.3982 -0.0528
   40POPC  C313 5348   0.594   3.308   4.911 -0.3627 -0.3375  0.5766
   40POPC  H13X 5349   0.678   3.313   4.838 -0.3230 -0.3363  0.6227
   40POPC  H13Y 5350   0.544   3.407   4.912  0.9729  0.4021 -0.9279
   40POPC  C314 5351   0.489   3.205   4.856 -0.8113 -0.1773  0.0353
   40POPC  H14X 5352   0.442   3.263   4.773  0.4320  2.0163  0.7898
   40POPC  H14Y 5353   0.408   3.181   4.929 -0.7684  0.0016  0.1432
   40POPC  C315 5354   0.557   3.078   4.810  0.7250 -0.1347  0.2757
   40POPC  H15X 5355   0.589   3.013   4.894  0.5214  1.3295  1.5344
   40POPC  H15Y 5356   0.646   3.115   4.755  0.3485 -0.4726 -0.5793
   40POPC  C316 5357   0.467   3.011   4.708  0.8969  0.1940  0.2326
   40POPC  H16X 5358   0.391   2.950   4.762 -1.6128  0.5184 -2.6533
   40POPC  H16Y 5359   0.521   2.936   4.646 -3.0521 -2.7329 -0.0024
   40POPC  H16Z 5360   0.413   3.092   4.655 -0.6626 -0.7971  0.2655
   41POPC     N 5361   7.741   5.054   5.918 -0.0092 -0.5354  0.0588
   41POPC   C12 5362   7.776   5.120   5.786  0.0376  0.3559 -0.9594
   41POPC  H12A 5363   7.698   5.112   5.711 -0.8134 -0.3554 -0.0164
   41POPC  H12B 5364   7.852   5.057   5.742 -0.2379 -1.3259  0.8191
   41POPC   C13 5365   7.632   5.124   5.991 -0.5246 -0.0030 -0.4255
   41POPC  H13A 5366   7.590   5.072   6.076  1.2918  1.0736  1.2184
   41POPC  H13B 5367   7.667   5.222   6.022  0.2914  0.1899 -1.8910
   41POPC  H13C 5368   7.553   5.146   5.921  0.5887 -0.0278 -1.7193
   41POPC   C14 5369   7.693   4.913   5.900 -0.0416  0.3076 -0.3816
   41POPC  H14A 5370   7.755   4.842   5.846  1.7138  0.2663  1.5621
   41POPC  H14B 5371   7.681   4.878   6.001  0.0922  0.9338 -0.1486
   41POPC  H14C 5372   7.603   4.921   5.841 -0.4455  1.4059  0.3543
   41POPC   C15 5373   7.864   5.061   6.012  0.7593  0.2571  0.3916
   41POPC  H15A 5374   7.892   5.165   6.022  0.4191  0.4009 -0.1001
   41POPC  H15B 5375   7.948   5.000   5.985  0.8761  0.1803  0.9275
   41POPC  H15C 5376   7.824   5.026   6.106 -0.1589  0.8346  0.2350
   41POPC   C11 5377   7.826   5.269   5.788 -0.4936  0.5394  0.5938
   41POPC  H11A 5378   7.754   5.335   5.840 -0.7601 -0.5609  1.6720
   41POPC  H11B 5379   7.811   5.300   5.682  0.6126  0.3256  0.3605
   41POPC     P 5380   8.012   5.416   5.877 -0.3830 -0.0701 -0.0064
   41POPC   O13 5381   8.138   5.404   5.949 -0.6042  0.4050  0.1905
   41POPC   O14 5382   7.910   5.478   5.959  0.5296 -0.2126 -0.0155
   41POPC   O12 5383   7.963   5.283   5.833 -0.0510  0.1033  0.3435
   41POPC   O11 5384   8.026   5.493   5.739 -0.1785 -0.4248  0.1888
   41POPC    C1 5385   8.049   5.431   5.610 -0.3989 -0.1873 -0.4483
   41POPC    HA 5386   8.001   5.492   5.531 -1.9732 -0.5646  0.1903
   41POPC    HB 5387   8.008   5.328   5.604  0.1829 -0.3526 -1.7151
   41POPC    C2 5388   8.199   5.420   5.573  0.2454  0.1358 -0.4581
   41POPC    HS 5389   8.249   5.341   5.634 -1.5319  0.7408  1.9287
   41POPC   O21 5390   8.261   5.549   5.584  0.1860  0.3255 -0.0702
   41POPC   C21 5391   8.393   5.545   5.609  0.4336 -0.5598 -0.4965
   41POPC   O22 5392   8.460   5.444   5.596  0.1194 -0.7942  0.0855
   41POPC   C22 5393   8.447   5.677   5.656  0.2044  0.0399  0.0942
   41POPC   H2R 5394   8.402   5.702   5.754  1.3769  0.3307  0.5723
   41POPC   H2S 5395   8.413   5.764   5.595 -0.2087  1.5231  2.3180
   41POPC    C3 5396   8.222   5.380   5.419  0.3959  0.3649  0.4506
   41POPC    HX 5397   8.325   5.338   5.424  0.5872  0.8945  1.0900
   41POPC    HY 5398   8.226   5.472   5.356  2.5054  0.1837  0.2329
   41POPC   O31 5399   8.117   5.292   5.373 -0.0152  0.1686 -0.2087
   41POPC   C31 5400   8.163   5.218   5.261 -0.0954 -0.8552  0.0367
   41POPC   O32 5401   8.279   5.217   5.225  0.5225  0.3720 -0.5439
   41POPC   C32 5402   8.053   5.125   5.222  0.0244 -0.4562 -0.2084
   41POPC   H2X 5403   7.962   5.180   5.188 -0.7927 -1.3634  0.4453
   41POPC   H2Y 5404   8.023   5.057   5.304  1.8018 -0.4669  0.4747
   41POPC   C23 5405   8.604   5.689   5.666  0.7333  0.1690 -0.7859
   41POPC   H3R 5406   8.646   5.597   5.619 -1.4324 -0.8021 -0.9328
   41POPC   H3S 5407   8.638   5.690   5.771 -0.2099  1.9161 -0.4666
   41POPC   C24 5408   8.673   5.810   5.590  0.5740 -0.2194 -0.3437
   41POPC   H4R 5409   8.782   5.813   5.611  0.8384 -0.1802 -1.6493
   41POPC   H4S 5410   8.620   5.901   5.625 -0.4422 -1.2669  0.9590
   41POPC   C25 5411   8.652   5.799   5.441 -0.6453 -0.0192  0.8263
   41POPC   H5R 5412   8.544   5.812   5.418 -0.1060  2.0474 -0.8113
   41POPC   H5S 5413   8.686   5.701   5.401  1.3093  1.9935 -2.9675
   41POPC   C26 5414   8.727   5.905   5.354 -0.5520  0.6515 -0.2967
   41POPC   H6R 5415   8.836   5.900   5.374 -0.6998  2.6078  1.2104
   41POPC   H6S 5416   8.702   6.005   5.396  2.2152  1.7438 -1.0286
   41POPC   C27 5417   8.702   5.886   5.204  0.1445 -0.6273 -0.4905
   41POPC   H7R 5418   8.595   5.907   5.183  0.8589  1.2708 -2.4924
   41POPC   H7S 5419   8.719   5.781   5.172  1.8851 -0.8937  1.0918
   41POPC   C28 5420   8.789   5.984   5.120 -0.0860  0.7514 -0.6157
   41POPC   H8R 5421   8.891   5.943   5.130 -1.2085 -2.3396 -0.5330
   41POPC   H8S 5422   8.788   6.086   5.162 -0.8764  1.1731 -1.6218
   41POPC   C29 5423   8.745   5.980   4.974  0.0612 -0.3162  0.7508
   41POPC   H91 5424   8.641   6.006   4.948  0.5935 -0.9771 -2.5248
   41POPC  C210 5425   8.820   5.931   4.873 -0.3538 -0.3564  0.3687
   41POPC  H101 5426   8.782   5.942   4.770  1.9610 -0.5476 -0.5592
   41POPC  C211 5427   8.966   5.886   4.878 -0.6492  0.2378  0.1185
   41POPC  H11R 5428   8.977   5.844   4.981 -2.9341  1.4991  0.9354
   41POPC  H11S 5429   9.032   5.974   4.866 -1.2338  0.6530 -0.0632
   41POPC  C212 5430   8.987   5.776   4.771  0.0263  0.7239  0.2410
   41POPC  H12R 5431   8.893   5.717   4.756  0.6618 -0.3074  0.1994
   41POPC  H12S 5432   9.055   5.695   4.803  1.0837  0.0524 -3.2671
   41POPC  C213 5433   9.025   5.826   4.634  0.0930  0.3274  0.1619
   41POPC  H13R 5434   9.092   5.748   4.592 -0.7994 -0.7148  0.6055
   41POPC  H13S 5435   9.092   5.913   4.627  2.3632 -1.4798 -2.6050
   41POPC  C214 5436   8.896   5.846   4.537 -0.0511  0.0478  0.1198
   41POPC  H14R 5437   8.857   5.949   4.547 -0.9879 -0.2704 -0.1935
   41POPC  H14S 5438   8.816   5.770   4.554 -2.2509  2.3034  0.4282
   41POPC  C215 5439   8.929   5.831   4.390 -0.1782  0.6307  0.1369
   41POPC  H15R 5440   9.019   5.890   4.363  0.3961 -0.4302 -0.3190
   41POPC  H15S 5441   8.847   5.881   4.333 -0.2054 -0.9355 -1.2650
   41POPC  C216 5442   8.946   5.687   4.340  0.1242 -0.0573  0.4761
   41POPC  H16R 5443   8.878   5.630   4.407  0.6819 -2.0225 -0.5542
   41POPC  H16S 5444   9.045   5.645   4.366 -0.4581 -1.2836  0.7466
   41POPC  C217 5445   8.893   5.671   4.196  0.1490 -0.2067 -0.0284
   41POPC  H17R 5446   8.962   5.734   4.136  1.7437 -1.6874  0.1282
   41POPC  H17S 5447   8.787   5.701   4.206  0.0127 -0.8212  0.4109
   41POPC  C218 5448   8.902   5.523   4.150  0.8695  0.0302  0.5255
   41POPC  H18R 5449   8.894   5.508   4.041 -4.4808  1.3675  0.4404
   41POPC  H18S 5450   8.821   5.466   4.201  0.1307 -2.4146 -3.0118
   41POPC  H18T 5451   8.994   5.479   4.195  0.6388  2.2584  3.5059
   41POPC   C33 5452   8.100   5.016   5.114  0.5953 -0.5404 -0.0335
   41POPC   H3X 5453   8.174   4.952   5.167  1.3593  1.8206  1.9085
   41POPC   H3Y 5454   8.163   5.070   5.041  0.5517  2.0200  1.7205
   41POPC   C34 5455   7.983   4.942   5.048  0.2207  0.0976  0.4391
   41POPC   H4X 5456   7.895   5.010   5.039  0.8549  0.7563 -1.1695
   41POPC   H4Y 5457   7.947   4.857   5.109  2.1679  0.0326  1.5967
   41POPC   C35 5458   8.032   4.878   4.920  0.5529  0.1705 -0.5470
   41POPC   H5X 5459   8.115   4.813   4.955  1.0639  1.2619  0.3341
   41POPC   H5Y 5460   8.083   4.954   4.856  2.4467 -1.6189 -1.2835
   41POPC   C36 5461   7.929   4.803   4.836  0.3835 -0.6103 -0.4252
   41POPC   H6X 5462   7.835   4.856   4.809  0.6889 -0.8602 -2.0672
   41POPC   H6Y 5463   7.896   4.709   4.886  0.6633 -1.3879 -1.6526
   41POPC   C37 5464   7.996   4.756   4.695  0.5675  0.6388  0.1455
   41POPC   H7X 5465   8.090   4.712   4.734  0.1760  0.1997  0.6056
   41POPC   H7Y 5466   8.013   4.846   4.631  0.7519 -0.0020 -0.7303
   41POPC   C38 5467   7.898   4.659   4.627 -0.2597  0.4791 -0.2988
   41POPC   H8X 5468   7.860   4.592   4.707 -2.5617  3.2758  1.1653
   41POPC   H8Y 5469   7.952   4.592   4.558  1.1125  0.2732  0.9184
   41POPC   C39 5470   7.785   4.745   4.565 -0.3870 -0.3626  0.6868
   41POPC   H9X 5471   7.838   4.780   4.474  0.0635  1.8166  1.7068
   41POPC   H9Y 5472   7.758   4.843   4.610 -0.7303 -0.0952 -0.0885
   41POPC  C310 5473   7.657   4.676   4.531 -0.1459 -0.3490 -0.3618
   41POPC  H10X 5474   7.615   4.627   4.621  0.4094 -3.5287 -1.7199
   41POPC  H10Y 5475   7.680   4.588   4.467 -0.3293 -0.0195 -0.8887
   41POPC  C311 5476   7.562   4.771   4.459 -0.8758 -0.2154  0.3769
   41POPC  H11X 5477   7.613   4.831   4.380  2.6989 -0.1441  2.5076
   41POPC  H11Y 5478   7.518   4.844   4.530  2.6821  0.3247  2.2507
   41POPC  C312 5479   7.456   4.677   4.389 -0.5683 -0.3066  0.2920
   41POPC  H12X 5480   7.385   4.753   4.348  0.7977  0.9355  0.1568
   41POPC  H12Y 5481   7.409   4.615   4.468  1.9024 -0.4630  1.7389
   41POPC  C313 5482   7.507   4.590   4.269  0.4525  0.1297 -0.8193
   41POPC  H13X 5483   7.436   4.505   4.272 -0.0911  0.4820  3.8920
   41POPC  H13Y 5484   7.604   4.544   4.293 -1.0787 -2.5495  0.7253
   41POPC  C314 5485   7.505   4.657   4.129  0.3699 -0.1288 -0.5890
   41POPC  H14X 5486   7.572   4.746   4.124 -0.3251  0.3842 -0.8429
   41POPC  H14Y 5487   7.408   4.706   4.107  0.4470 -0.2074 -1.0989
   41POPC  C315 5488   7.550   4.568   4.012  0.3092 -0.2691 -0.7690
   41POPC  H15X 5489   7.492   4.475   3.991  0.7579 -0.4389 -1.2845
   41POPC  H15Y 5490   7.649   4.525   4.035  1.0907  2.0302  0.5042
   41POPC  C316 5491   7.572   4.633   3.877 -0.1276 -0.4554  0.0539
   41POPC  H16X 5492   7.587   4.554   3.800 -3.7469  0.1395 -1.4805
   41POPC  H16Y 5493   7.662   4.695   3.863  0.3309 -1.2973 -0.8949
   41POPC  H16Z 5494   7.485   4.690   3.836 -2.2868 -3.0343  0.7613
   42POPC     N 5495   1.041   4.474   5.843  0.1003 -0.1116 -0.1758
   42POPC   C12 5496   0.915   4.439   5.771  0.0089 -0.2078  0.1481
   42POPC  H12A 5497   0.858   4.381   5.843 -0.8351  0.2606 -0.1228
   42POPC  H12B 5498   0.934   4.369   5.691  2.0096  0.2513  0.1735
   42POPC   C13 5499   1.103   4.351   5.905  0.1225  0.3982  0.3811
   42POPC  H13A 5500   1.122   4.271   5.834 -0.4474 -1.3146  2.0574
   42POPC  H13B 5501   1.198   4.382   5.945  1.2155 -0.2306 -1.5910
   42POPC  H13C 5502   1.042   4.314   5.987 -2.1327 -1.0283 -1.7891
   42POPC   C14 5503   1.139   4.540   5.741 -0.4047 -0.5863 -0.9920
   42POPC  H14A 5504   1.231   4.548   5.798  1.0000 -3.6586 -2.6117
   42POPC  H14B 5505   1.160   4.474   5.659 -0.9544 -0.6747 -1.0694
   42POPC  H14C 5506   1.099   4.636   5.713  1.1868 -0.0224 -1.4111
   42POPC   C15 5507   1.007   4.556   5.966  0.4806 -0.6667  0.6162
   42POPC  H15A 5508   0.931   4.627   5.938 -0.0174 -1.7382 -0.8829
   42POPC  H15B 5509   1.088   4.616   6.005  0.8790 -0.8222  0.0493
   42POPC  H15C 5510   0.964   4.489   6.039 -4.5345 -0.3871 -1.6545
   42POPC   C11 5511   0.821   4.553   5.726  0.0670  0.7604  0.4570
   42POPC  H11A 5512   0.750   4.522   5.647  0.2752 -0.2506  0.6522
   42POPC  H11B 5513   0.889   4.624   5.674  1.7230 -0.0844  1.3815
   42POPC     P 5514   0.620   4.559   5.885  0.4065  0.2382  0.2807
   42POPC   O13 5515   0.572   4.632   6.005  0.1922  0.1361 -0.2726
   42POPC   O14 5516   0.630   4.414   5.897 -0.0195  0.5054 -0.1830
   42POPC   O12 5517   0.752   4.615   5.834  0.0889  0.4640  0.1018
   42POPC   O11 5518   0.515   4.589   5.769 -0.0268  0.1325 -0.0115
   42POPC    C1 5519   0.532   4.694   5.665  0.3506  0.2955 -0.4290
   42POPC    HA 5520   0.629   4.748   5.664 -1.0092  2.8546 -1.2109
   42POPC    HB 5521   0.466   4.782   5.678 -0.6213 -0.0233 -2.7659
   42POPC    C2 5522   0.492   4.633   5.525  0.4173  0.2394  0.6195
   42POPC    HS 5523   0.401   4.572   5.543  0.8735  0.0352  2.4304
   42POPC   O21 5524   0.605   4.553   5.480  0.3512 -0.5119  0.5509
   42POPC   C21 5525   0.566   4.452   5.395 -0.5577 -0.1694  0.4167
   42POPC   O22 5526   0.454   4.412   5.383 -0.0919  0.1930 -0.6468
   42POPC   C22 5527   0.688   4.392   5.328 -0.0297  0.5744 -0.3142
   42POPC   H2R 5528   0.663   4.289   5.295  1.7993  0.4988 -1.6847
   42POPC   H2S 5529   0.772   4.379   5.400 -0.2946 -4.1083 -0.5449
   42POPC    C3 5530   0.465   4.749   5.426 -0.5804  0.5082 -0.4629
   42POPC    HX 5531   0.559   4.806   5.411  0.1031 -0.4997 -0.1204
   42POPC    HY 5532   0.394   4.817   5.478  2.7158  1.5379  3.1687
   42POPC   O31 5533   0.415   4.706   5.304 -0.2643  0.0923 -0.0640
   42POPC   C31 5534   0.286   4.666   5.307 -0.3647  0.7346  0.1611
   42POPC   O32 5535   0.214   4.671   5.402 -0.3491  0.2438  0.0436
   42POPC   C32 5536   0.227   4.641   5.171 -0.1570  0.7107  0.4119
   42POPC   H2X 5537   0.295   4.695   5.102  0.3001  1.1730  1.2140
   42POPC   H2Y 5538   0.123   4.679   5.183 -2.1723 -3.6337 -1.1181
   42POPC   C23 5539   0.741   4.494   5.211  0.3568 -0.3213 -0.3794
   42POPC   H3R 5540   0.828   4.447   5.160  1.9450  0.8648  1.1196
   42POPC   H3S 5541   0.779   4.588   5.257  1.0341  0.8868 -3.1933
   42POPC   C24 5542   0.632   4.524   5.103 -0.1033  0.1322 -0.2507
   42POPC   H4R 5543   0.551   4.581   5.154  1.1227  1.4940  0.2742
   42POPC   H4S 5544   0.595   4.424   5.074 -1.7607  0.7414 -0.3263
   42POPC   C25 5545   0.683   4.610   4.984 -0.0634 -0.1179 -0.3089
   42POPC   H5R 5546   0.747   4.551   4.914 -0.3138 -0.6325 -0.1094
   42POPC   H5S 5547   0.733   4.703   5.018  1.0682 -0.5487 -0.7354
   42POPC   C26 5548   0.566   4.662   4.898  0.0619  0.2904 -1.1392
   42POPC   H6R 5549   0.503   4.723   4.966  3.2876  0.2798  2.1968
   42POPC   H6S 5550   0.496   4.584   4.862 -0.5250  0.9939 -1.5437
   42POPC   C27 5551   0.618   4.756   4.786  0.1629 -0.0817 -0.2280
   42POPC   H7R 5552   0.600   4.704   4.690  2.3396 -0.5182 -0.4564
   42POPC   H7S 5553   0.728   4.767   4.800  0.5866 -3.5185 -0.0144
   42POPC   C28 5554   0.552   4.889   4.784 -0.6995  0.4612  0.1036
   42POPC   H8R 5555   0.584   4.959   4.865  0.6319 -0.7950  0.7100
   42POPC   H8S 5556   0.441   4.883   4.793 -0.7110  2.7209  2.9675
   42POPC   C29 5557   0.570   4.968   4.655  0.4222 -0.0880  1.0822
   42POPC   H91 5558   0.665   5.023   4.652 -0.0895  0.8341  1.5529
   42POPC  C210 5559   0.491   4.978   4.544  0.3867  0.3413  0.0722
   42POPC  H101 5560   0.534   5.036   4.461  1.3611 -1.8876 -1.0619
   42POPC  C211 5561   0.362   4.902   4.532  0.6060  0.1342 -0.3089
   42POPC  H11R 5562   0.275   4.963   4.565 -0.8784 -1.8940 -0.2989
   42POPC  H11S 5563   0.362   4.810   4.594  0.6472  1.4496  1.7423
   42POPC  C212 5564   0.338   4.858   4.388 -0.5330  0.0585 -0.2569
   42POPC  H12R 5565   0.257   4.782   4.387 -0.6347  0.1280 -2.5833
   42POPC  H12S 5566   0.429   4.812   4.343 -1.3003 -1.6149 -0.1787
   42POPC  C213 5567   0.278   4.971   4.304  0.0564 -0.9427 -0.1122
   42POPC  H13R 5568   0.356   5.050   4.312 -0.3008 -0.7991  3.5629
   42POPC  H13S 5569   0.187   5.019   4.346  1.7213  1.8349  0.5612
   42POPC  C214 5570   0.251   4.926   4.158 -0.8347  0.1980  0.0400
   42POPC  H14R 5571   0.145   4.892   4.149 -0.8488 -0.0591  1.0729
   42POPC  H14S 5572   0.307   4.831   4.144 -1.4778 -0.7643  3.2659
   42POPC  C215 5573   0.267   5.032   4.054  0.3362 -0.9953  1.3118
   42POPC  H15R 5574   0.222   5.125   4.095  1.9113 -0.2440  1.4227
   42POPC  H15S 5575   0.217   5.010   3.958  1.2831  1.3649  0.1945
   42POPC  C216 5576   0.417   5.074   4.027 -0.3857  0.7331  0.2125
   42POPC  H16R 5577   0.455   4.987   3.969  1.9094 -1.2156  4.2581
   42POPC  H16S 5578   0.472   5.079   4.123 -0.7078  2.0161  0.3469
   42POPC  C217 5579   0.421   5.206   3.956  0.3595 -0.2401  0.0501
   42POPC  H17R 5580   0.334   5.219   3.889 -1.9083 -1.5241  2.5466
   42POPC  H17S 5581   0.510   5.217   3.890 -0.5701  1.9834 -0.9300
   42POPC  C218 5582   0.418   5.326   4.050  0.6100  0.6939  0.0471
   42POPC  H18R 5583   0.327   5.341   4.110  0.5222  1.6282 -0.3053
   42POPC  H18S 5584   0.416   5.416   3.985  1.2843  0.2178 -0.6579
   42POPC  H18T 5585   0.509   5.315   4.114 -0.2346  0.8931  1.3127
   42POPC   C33 5586   0.223   4.488   5.122  0.2620  0.8492  0.5182
   42POPC   H3X 5587   0.177   4.419   5.195  2.2555 -1.5782 -0.3835
   42POPC   H3Y 5588   0.328   4.452   5.115  0.4154  1.3368  0.2058
   42POPC   C34 5589   0.136   4.466   4.999 -0.1302  0.2365  0.3726
   42POPC   H4X 5590   0.037   4.515   5.011  0.4285  2.2729 -2.1534
   42POPC   H4Y 5591   0.127   4.359   4.972 -0.0321  0.0153  1.2059
   42POPC   C35 5592   0.198   4.537   4.881 -0.8556 -0.0602  0.1251
   42POPC   H5X 5593   0.305   4.508   4.874 -0.9448 -0.1833 -0.9283
   42POPC   H5Y 5594   0.180   4.647   4.884  0.0730  0.0921  0.2391
   42POPC   C36 5595   0.151   4.482   4.747 -0.1960  0.6785  0.1385
   42POPC   H6X 5596   0.041   4.493   4.744 -0.2314  0.0962 -1.3255
   42POPC   H6Y 5597   0.184   4.376   4.741 -0.4584  0.5879  0.3056
   42POPC   C37 5598   0.217   4.554   4.622 -0.4200  0.2250  0.3642
   42POPC   H7X 5599   0.320   4.572   4.660  0.2343 -2.7915  0.2291
   42POPC   H7Y 5600   0.168   4.650   4.595  1.4854  1.5349  1.3330
   42POPC   C38 5601   0.217   4.466   4.497 -0.0598  0.8871 -0.0433
   42POPC   H8X 5602   0.222   4.539   4.413 -0.2331 -0.0079 -0.8528
   42POPC   H8Y 5603   0.119   4.415   4.503  0.5680 -0.6751 -2.1115
   42POPC   C39 5604   0.319   4.351   4.499  0.0918  0.4495  0.1993
   42POPC   H9X 5605   0.292   4.285   4.413  1.0747 -0.6553  0.7114
   42POPC   H9Y 5606   0.288   4.294   4.589 -0.5406  0.6308  0.1054
   42POPC  C310 5607   0.472   4.391   4.497 -0.2313  0.3040 -0.4026
   42POPC  H10X 5608   0.530   4.298   4.514 -0.2856  0.2917 -0.2878
   42POPC  H10Y 5609   0.500   4.459   4.581 -2.1790  1.0903 -0.3513
   42POPC  C311 5610   0.533   4.455   4.367  0.6021 -0.0942  0.2574
   42POPC  H11X 5611   0.487   4.554   4.347  2.2930  0.8148  0.7400
   42POPC  H11Y 5612   0.520   4.381   4.285 -0.3626 -0.9599  1.1541
   42POPC  C312 5613   0.687   4.478   4.378  0.6542  0.4777 -0.3670
   42POPC  H12X 5614   0.705   4.524   4.278  1.3984  0.2633 -0.3378
   42POPC  H12Y 5615   0.741   4.386   4.407  0.3823  0.5309  0.3245
   42POPC  C313 5616   0.725   4.597   4.466  0.1639  0.6993  0.4225
   42POPC  H13X 5617   0.692   4.585   4.571  0.9413 -0.8381  0.5181
   42POPC  H13Y 5618   0.672   4.685   4.424  0.9523  1.4795  1.0297
   42POPC  C314 5619   0.875   4.628   4.467  0.3327  0.3791  0.7620
   42POPC  H14X 5620   0.898   4.707   4.543  1.9200 -0.4455  1.1964
   42POPC  H14Y 5621   0.900   4.677   4.370 -1.4756  0.4036  0.2838
   42POPC  C315 5622   0.970   4.501   4.481 -0.3856 -0.6058  0.3291
   42POPC  H15X 5623   0.940   4.430   4.401 -2.6113  1.0739 -0.4366
   42POPC  H15Y 5624   0.940   4.444   4.572 -1.6367  0.8318  0.8546
   42POPC  C316 5625   1.114   4.541   4.463 -0.0084 -0.6128 -0.3414
   42POPC  H16X 5626   1.189   4.464   4.491  0.6102 -0.5618 -1.8075
   42POPC  H16Y 5627   1.137   4.636   4.516  2.0202 -1.0069 -0.4600
   42POPC  H16Z 5628   1.139   4.566   4.358 -0.1371 -1.1304 -0.4991
   43POPC     N 5629   6.409   3.669   6.226  0.0548 -0.1915 -0.2459
   43POPC   C12 5630   6.362   3.761   6.109  0.2839  0.5185 -0.1906
   43POPC  H12A 5631   6.254   3.749   6.111  0.4225 -0.7948  0.5519
   43POPC  H12B 5632   6.391   3.713   6.017  0.3766 -1.2396  0.7166
   43POPC   C13 5633   6.354   3.727   6.357 -0.4460 -0.4409 -0.0283
   43POPC  H13A 5634   6.263   3.784   6.363  0.4992  1.0828  0.5252
   43POPC  H13B 5635   6.355   3.657   6.439 -0.0816 -0.0015  0.3537
   43POPC  H13C 5636   6.431   3.790   6.401 -2.8964  1.9855  1.0631
   43POPC   C14 5637   6.363   3.522   6.208  0.5381 -0.0269  0.0890
   43POPC  H14A 5638   6.408   3.449   6.274  0.5315 -0.6766 -0.6036
   43POPC  H14B 5639   6.256   3.524   6.222  0.3683 -0.4598 -1.0100
   43POPC  H14C 5640   6.381   3.488   6.107 -0.7936 -2.7640  0.6669
   43POPC   C15 5641   6.559   3.657   6.237 -0.1753  0.6220 -0.5267
   43POPC  H15A 5642   6.604   3.615   6.148  3.0668  0.8147  0.8604
   43POPC  H15B 5643   6.584   3.594   6.322 -1.0669  2.0302  0.8381
   43POPC  H15C 5644   6.598   3.754   6.263  0.7544  0.1240  0.0043
   43POPC   C11 5645   6.393   3.910   6.126 -0.3359  0.6094  0.5008
   43POPC  H11A 5646   6.366   3.945   6.228  0.8494  0.6228  0.8333
   43POPC  H11B 5647   6.345   3.974   6.050 -0.8898  1.2209  1.3559
   43POPC     P 5648   6.603   4.015   6.004 -0.0429 -0.2997  0.0856
   43POPC   O13 5649   6.753   4.002   6.008  0.6208  0.4335  0.3836
   43POPC   O14 5650   6.553   4.152   6.007 -0.2487 -1.1359 -0.2202
   43POPC   O12 5651   6.536   3.929   6.115 -0.6589  0.5263  0.1925
   43POPC   O11 5652   6.550   3.939   5.879  0.2213 -0.4615  0.0518
   43POPC    C1 5653   6.601   3.809   5.851 -0.6365  0.1979 -0.1456
   43POPC    HA 5654   6.525   3.746   5.801  0.1288 -0.4053 -0.5601
   43POPC    HB 5655   6.634   3.762   5.946 -0.5803  0.8201  0.1476
   43POPC    C2 5656   6.724   3.812   5.759  0.3696  0.5253  0.5515
   43POPC    HS 5657   6.805   3.864   5.813  2.8278 -2.4154 -0.0379
   43POPC   O21 5658   6.677   3.888   5.650  0.0428 -0.1037  0.4110
   43POPC   C21 5659   6.773   3.924   5.572 -0.0978 -0.3244 -0.1495
   43POPC   O22 5660   6.890   3.901   5.587 -0.0267 -0.0148 -0.2296
   43POPC   C22 5661   6.706   4.004   5.459  0.5417  0.6390  0.6840
   43POPC   H2R 5662   6.752   4.105   5.469 -1.6194  1.8232 -0.5401
   43POPC   H2S 5663   6.598   4.011   5.485  0.9495  1.5396  2.2793
   43POPC    C3 5664   6.773   3.672   5.722  0.0822  0.0104 -0.4636
   43POPC    HX 5665   6.772   3.615   5.818  0.4433 -1.3413 -1.2314
   43POPC    HY 5666   6.874   3.685   5.677 -0.9485  2.6422 -2.2348
   43POPC   O31 5667   6.685   3.606   5.629  0.3316  0.3119 -0.3962
   43POPC   C31 5668   6.720   3.477   5.611  0.2206 -0.2250  0.1660
   43POPC   O32 5669   6.834   3.432   5.630 -0.8278 -0.6447 -0.0449
   43POPC   C32 5670   6.610   3.395   5.535  0.1454 -0.3832 -1.0184
   43POPC   H2X 5671   6.577   3.321   5.612  1.1474 -1.4299 -1.5580
   43POPC   H2Y 5672   6.666   3.345   5.452  1.3199 -1.7420  0.5275
   43POPC   C23 5673   6.731   3.947   5.322  0.2941 -0.0011 -0.0118
   43POPC   H3R 5674   6.691   3.844   5.308 -1.2109  0.2238  2.1551
   43POPC   H3S 5675   6.842   3.954   5.317  0.6926 -0.9901  4.0993
   43POPC   C24 5676   6.672   4.049   5.214  0.0599 -0.4144  0.2859
   43POPC   H4R 5677   6.679   4.155   5.249  0.2709  0.6591 -2.6899
   43POPC   H4S 5678   6.564   4.032   5.196 -0.3588  1.2108  1.0770
   43POPC   C25 5679   6.740   4.022   5.076  0.1630  0.2178  0.6065
   43POPC   H5R 5680   6.738   3.915   5.048 -0.4893  0.6671 -1.1806
   43POPC   H5S 5681   6.848   4.044   5.093 -0.1316  1.8879  0.5504
   43POPC   C26 5682   6.694   4.118   4.968 -0.3325 -0.1464  0.7560
   43POPC   H6R 5683   6.708   4.220   5.009  0.5176 -0.6055  1.6368
   43POPC   H6S 5684   6.589   4.100   4.934 -0.2839  0.7466  0.0856
   43POPC   C27 5685   6.779   4.113   4.837  0.5489 -0.0831 -0.3944
   43POPC   H7R 5686   6.758   4.021   4.779  0.2471 -1.1280  1.3413
   43POPC   H7S 5687   6.887   4.123   4.860  0.7052 -0.8360 -0.7832
   43POPC   C28 5688   6.742   4.230   4.739 -0.3406  0.4647 -0.1817
   43POPC   H8R 5689   6.710   4.319   4.797 -0.1930  0.8109 -0.6275
   43POPC   H8S 5690   6.649   4.192   4.692 -0.1549  1.1478 -1.1381
   43POPC   C29 5691   6.839   4.266   4.627 -0.1947  0.1910 -0.0134
   43POPC   H91 5692   6.948   4.268   4.644 -0.0226  1.7461 -1.1403
   43POPC  C210 5693   6.810   4.283   4.499 -0.1509 -0.1644  0.1934
   43POPC  H101 5694   6.897   4.297   4.434 -0.5308  2.0075  0.0796
   43POPC  C211 5695   6.679   4.280   4.429  0.2039  0.1421  0.0974
   43POPC  H11R 5696   6.661   4.379   4.382  1.8184  0.7671  0.7248
   43POPC  H11S 5697   6.602   4.270   4.508 -0.0349  3.3865  0.4300
   43POPC  C212 5698   6.670   4.160   4.333 -0.1593  0.7636 -0.7416
   43POPC  H12R 5699   6.564   4.127   4.321 -0.6278  1.2658  1.6291
   43POPC  H12S 5700   6.717   4.073   4.385  0.7595  2.7377  1.9284
   43POPC  C213 5701   6.747   4.163   4.199  0.1226 -0.4108  0.2409
   43POPC  H13R 5702   6.815   4.077   4.180  1.3073  0.9649 -2.1121
   43POPC  H13S 5703   6.825   4.242   4.206 -0.5871  0.2691  0.5899
   43POPC  C214 5704   6.649   4.203   4.083  0.1647 -0.1217  0.8801
   43POPC  H14R 5705   6.631   4.312   4.093  0.4599  0.1895 -1.3449
   43POPC  H14S 5706   6.562   4.136   4.100  1.5884 -2.1439  0.6031
   43POPC  C215 5707   6.697   4.186   3.939  0.8499 -0.4646  0.6260
   43POPC  H15R 5708   6.605   4.202   3.879 -0.3169 -0.6601  2.2806
   43POPC  H15S 5709   6.733   4.082   3.923 -0.8334 -1.1036  0.8334
   43POPC  C216 5710   6.807   4.286   3.896 -0.9722 -0.8125 -0.0852
   43POPC  H16R 5711   6.890   4.282   3.970 -0.7773  2.4838  0.0013
   43POPC  H16S 5712   6.764   4.388   3.903 -0.5847 -0.7441  1.9005
   43POPC  C217 5713   6.857   4.256   3.755 -0.3569 -0.6564 -0.5782
   43POPC  H17R 5714   6.916   4.163   3.769 -1.3111 -1.1852  0.0080
   43POPC  H17S 5715   6.934   4.331   3.727  1.3478 -0.6529  3.3857
   43POPC  C218 5716   6.746   4.236   3.654  0.0522  0.4190  0.4521
   43POPC  H18R 5717   6.670   4.317   3.657 -1.2794 -0.7860  0.1783
   43POPC  H18S 5718   6.685   4.146   3.674 -0.3623 -0.0038 -2.2977
   43POPC  H18T 5719   6.777   4.260   3.550  0.3653  1.1198  0.6928
   43POPC   C33 5720   6.486   3.466   5.490  0.3330  0.1172 -0.2462
   43POPC   H3X 5721   6.495   3.531   5.400  1.1674 -0.9012 -0.9280
   43POPC   H3Y 5722   6.455   3.540   5.567 -1.9944 -0.5068 -0.5221
   43POPC   C34 5723   6.370   3.370   5.475  0.6348  0.3271 -0.9462
   43POPC   H4X 5724   6.278   3.423   5.441  1.1634  1.5178 -0.5911
   43POPC   H4Y 5725   6.337   3.338   5.576 -1.4981  3.4440 -0.4947
   43POPC   C35 5726   6.406   3.256   5.371  0.2381  0.2737  0.1376
   43POPC   H5X 5727   6.316   3.191   5.370  0.6610 -0.3131 -0.9556
   43POPC   H5Y 5728   6.494   3.195   5.400  1.2197  0.8683 -1.4798
   43POPC   C36 5729   6.421   3.285   5.225  0.2105  0.5803  0.1551
   43POPC   H6X 5730   6.444   3.197   5.162 -1.6733 -0.5176  0.9306
   43POPC   H6Y 5731   6.514   3.346   5.218  0.6555 -0.0375  0.5527
   43POPC   C37 5732   6.300   3.354   5.169 -0.5974  0.1899 -0.1467
   43POPC   H7X 5733   6.271   3.445   5.226  1.9030  1.3137 -0.5090
   43POPC   H7Y 5734   6.218   3.280   5.176 -0.0084 -0.3344  1.8854
   43POPC   C38 5735   6.336   3.414   5.029 -0.1029 -0.5680 -0.0217
   43POPC   H8X 5736   6.442   3.441   5.013  0.6952 -3.2064  0.3867
   43POPC   H8Y 5737   6.275   3.503   5.003 -0.0631 -0.6129 -0.2646
   43POPC   C39 5738   6.301   3.313   4.922 -0.8386 -0.0265  0.6937
   43POPC   H9X 5739   6.295   3.382   4.834  1.9892  1.2156  1.3637
   43POPC   H9Y 5740   6.203   3.266   4.942 -0.2487 -1.9473 -0.6283
   43POPC  C310 5741   6.409   3.205   4.890  0.1308 -0.2204  0.0237
   43POPC  H10X 5742   6.396   3.122   4.962  1.5245  0.1452  0.7400
   43POPC  H10Y 5743   6.512   3.245   4.899 -0.5717  1.6151  0.3455
   43POPC  C311 5744   6.400   3.143   4.746 -0.4873 -0.2827  0.5445
   43POPC  H11X 5745   6.491   3.082   4.728  1.1591  1.3780  2.7045
   43POPC  H11Y 5746   6.385   3.223   4.671 -1.1481  0.5663  1.5646
   43POPC  C312 5747   6.279   3.040   4.735  0.1346 -0.4461  0.0567
   43POPC  H12X 5748   6.193   3.079   4.794 -0.3048 -0.1018 -0.7990
   43POPC  H12Y 5749   6.313   2.939   4.767  1.0542 -1.4964 -3.8133
   43POPC  C313 5750   6.233   3.030   4.589 -0.0522  0.2869  0.2660
   43POPC  H13X 5751   6.200   3.134   4.568  1.9805  1.4329  2.2564
   43POPC  H13Y 5752   6.146   2.962   4.574 -0.9213  1.4106  0.0553
   43POPC  C314 5753   6.353   2.993   4.498 -0.0012 -0.2631 -0.1658
   43POPC  H14X 5754   6.412   2.922   4.560  0.0014  0.3630  0.5687
   43POPC  H14Y 5755   6.409   3.088   4.482 -0.2564  0.3761  2.2712
   43POPC  C315 5756   6.308   2.912   4.375 -0.3268  0.3939 -0.0376
   43POPC  H15X 5757   6.247   2.825   4.405  1.3025 -0.7389  0.1209
   43POPC  H15Y 5758   6.397   2.868   4.326 -1.7244 -2.1481 -0.4425
   43POPC  C316 5759   6.236   2.993   4.263  0.3344  0.4861  0.3014
   43POPC  H16X 5760   6.237   2.926   4.175 -0.0767  1.3446 -0.3723
   43POPC  H16Y 5761   6.299   3.079   4.232 -0.0346 -0.0146 -1.9793
   43POPC  H16Z 5762   6.130   3.025   4.274 -0.1232 -0.2802 -1.5903
   44POPC     N 5763   1.735   1.726   6.196  0.6016 -0.3798 -0.0386
   44POPC   C12 5764   1.752   1.758   6.049  0.5588  0.0664 -0.5225
   44POPC  H12A 5765   1.850   1.794   6.021  0.4576  1.7467  1.0878
   44POPC  H12B 5766   1.676   1.834   6.033 -0.9928 -0.8923  1.7690
   44POPC   C13 5767   1.842   1.624   6.247  0.3003 -0.7356  0.0249
   44POPC  H13A 5768   1.837   1.594   6.351  0.8548 -1.6676 -0.2054
   44POPC  H13B 5769   1.832   1.532   6.193  0.1925 -0.6640 -0.0775
   44POPC  H13C 5770   1.938   1.669   6.226  0.0085  1.0481  2.1284
   44POPC   C14 5771   1.762   1.846   6.272  1.0897 -0.8203 -0.4283
   44POPC  H14A 5772   1.795   1.819   6.372  0.3534 -1.2743 -0.2988
   44POPC  H14B 5773   1.837   1.907   6.224  0.1478  0.2763 -0.5276
   44POPC  H14C 5774   1.671   1.900   6.289 -0.6579 -3.4713 -0.8013
   44POPC   C15 5775   1.599   1.680   6.229 -0.1606 -0.0219  0.0910
   44POPC  H15A 5776   1.592   1.657   6.334 -1.3601 -1.6218 -0.3061
   44POPC  H15B 5777   1.564   1.594   6.175  0.9459 -0.1196 -0.5024
   44POPC  H15C 5778   1.520   1.753   6.214 -0.3203 -0.2021  0.0482
   44POPC   C11 5779   1.722   1.641   5.955  0.0974 -0.0568  0.4368
   44POPC  H11A 5780   1.719   1.672   5.848  1.9072 -0.6658  0.1821
   44POPC  H11B 5781   1.620   1.603   5.980 -0.9412  1.9750 -0.4672
   44POPC     P 5782   1.965   1.551   5.922  0.3219  0.0450  0.1455
   44POPC   O13 5783   2.035   1.421   5.939 -0.0710  0.2273 -0.2262
   44POPC   O14 5784   2.032   1.666   5.994 -0.1957 -0.2691 -0.5004
   44POPC   O12 5785   1.815   1.535   5.970  0.6229 -0.3821  0.2635
   44POPC   O11 5786   1.957   1.589   5.768 -0.3816  0.1617 -0.0118
   44POPC    C1 5787   1.923   1.481   5.679  0.8613  0.2171 -0.4910
   44POPC    HA 5788   1.844   1.522   5.612  1.4394  1.2104 -0.5967
   44POPC    HB 5789   1.873   1.396   5.730  2.5812 -1.3887 -1.3945
   44POPC    C2 5790   2.029   1.422   5.580 -0.4984 -0.2461  0.2013
   44POPC    HS 5791   2.081   1.338   5.631 -2.2841 -1.3526  0.2606
   44POPC   O21 5792   2.128   1.524   5.554 -0.0087  0.1050  0.4319
   44POPC   C21 5793   2.265   1.487   5.535  0.8382  0.2078 -0.6647
   44POPC   O22 5794   2.307   1.380   5.573  0.0329 -0.2345 -0.1373
   44POPC   C22 5795   2.345   1.594   5.470  0.2676 -0.4850 -0.1320
   44POPC   H2R 5796   2.407   1.638   5.552  2.6876 -3.6030 -0.1059
   44POPC   H2S 5797   2.275   1.667   5.424  2.9108  1.6624 -0.9837
   44POPC    C3 5798   1.967   1.364   5.446 -0.1626 -0.0566 -1.4945
   44POPC    HX 5799   1.886   1.294   5.475  0.1446 -0.1325 -0.7891
   44POPC    HY 5800   2.043   1.313   5.383 -0.3378 -0.9308 -1.0066
   44POPC   O31 5801   1.894   1.471   5.380  0.0116  0.3066 -0.1277
   44POPC   C31 5802   1.962   1.537   5.283 -0.2566  0.0233 -0.1130
   44POPC   O32 5803   2.069   1.508   5.240 -0.7361  0.3841  0.2473
   44POPC   C32 5804   1.887   1.661   5.243  0.6895 -0.1210  0.4207
   44POPC   H2X 5805   1.939   1.751   5.282  2.0995  0.0503 -1.7002
   44POPC   H2Y 5806   1.787   1.646   5.290  0.9575 -0.2259  0.9675
   44POPC   C23 5807   2.449   1.553   5.360 -0.4374  0.8386 -0.1731
   44POPC   H3R 5808   2.507   1.462   5.386 -1.6333  0.0966 -0.0149
   44POPC   H3S 5809   2.521   1.637   5.359  2.5870 -1.5686  1.2696
   44POPC   C24 5810   2.398   1.509   5.226  0.9050 -0.2392 -0.3356
   44POPC   H4R 5811   2.354   1.602   5.182 -1.5772 -0.7181  0.9149
   44POPC   H4S 5812   2.314   1.436   5.229  1.0203 -0.5947 -3.1788
   44POPC   C25 5813   2.507   1.449   5.147 -0.0591 -0.6763 -0.3682
   44POPC   H5R 5814   2.470   1.405   5.052 -0.5055 -1.1060  0.0002
   44POPC   H5S 5815   2.557   1.368   5.207 -0.7105  0.7794  2.3091
   44POPC   C26 5816   2.621   1.554   5.115  0.4874 -0.4411  0.0642
   44POPC   H6R 5817   2.656   1.596   5.212 -3.3622 -1.5126  2.1006
   44POPC   H6S 5818   2.584   1.634   5.047  0.6181 -0.4911 -0.0662
   44POPC   C27 5819   2.750   1.482   5.063 -0.0284 -0.6621 -0.3437
   44POPC   H7R 5820   2.715   1.408   4.989  2.6391 -1.0623 -1.3048
   44POPC   H7S 5821   2.798   1.435   5.152  1.0700 -0.4167 -0.7883
   44POPC   C28 5822   2.852   1.581   5.013  0.2954  0.1580  1.3078
   44POPC   H8R 5823   2.912   1.631   5.092  1.7761  0.5043  0.0342
   44POPC   H8S 5824   2.807   1.662   4.951  0.3804  0.1433  1.2253
   44POPC   C29 5825   2.958   1.506   4.924  0.1997 -1.3981 -0.5057
   44POPC   H91 5826   3.005   1.431   4.989 -0.7480  0.3667  2.4206
   44POPC  C210 5827   2.990   1.522   4.802 -0.4763  0.9081  0.2059
   44POPC  H101 5828   3.074   1.460   4.768 -0.3957 -0.7938  3.1858
   44POPC  C211 5829   2.936   1.615   4.694 -0.2122 -0.4876  0.1350
   44POPC  H11R 5830   2.857   1.680   4.739 -0.6464  0.1207 -1.4130
   44POPC  H11S 5831   2.870   1.558   4.625  1.5531 -0.4464 -1.6789
   44POPC  C212 5832   3.024   1.694   4.604  0.2530 -0.8342  0.2325
   44POPC  H12R 5833   3.080   1.617   4.547  0.2898  0.2381 -1.2453
   44POPC  H12S 5834   3.098   1.754   4.663  1.6142 -0.0365 -2.1602
   44POPC  C213 5835   2.943   1.779   4.502 -0.0654 -0.5460  0.5005
   44POPC  H13R 5836   2.875   1.850   4.553  2.7980  1.9472  1.1508
   44POPC  H13S 5837   2.875   1.713   4.445  0.7291 -0.8557 -0.1114
   44POPC  C214 5838   3.035   1.859   4.416  0.1878  0.7298 -0.3152
   44POPC  H14R 5839   3.109   1.914   4.477 -0.1543  0.1576  0.6307
   44POPC  H14S 5840   2.975   1.940   4.368  2.1164  1.1396 -2.2069
   44POPC  C215 5841   3.122   1.781   4.321  0.0997  0.9294  0.2569
   44POPC  H15R 5842   3.205   1.743   4.384  0.9247  1.4015 -0.5204
   44POPC  H15S 5843   3.163   1.854   4.248  0.9116 -0.2519 -0.5063
   44POPC  C216 5844   3.057   1.661   4.246  0.3212 -0.2444  0.1810
   44POPC  H16R 5845   3.022   1.591   4.325 -0.2339 -1.5034 -1.1467
   44POPC  H16S 5846   3.129   1.605   4.183  0.3260 -0.9883  0.8312
   44POPC  C217 5847   2.933   1.704   4.165  0.5707  0.2131 -0.5144
   44POPC  H17R 5848   2.970   1.754   4.073 -0.3345  0.9242 -0.5084
   44POPC  H17S 5849   2.881   1.789   4.214  2.5782  0.8989  0.5270
   44POPC  C218 5850   2.839   1.584   4.135 -0.4667  0.0814  0.1810
   44POPC  H18R 5851   2.777   1.564   4.225 -2.0248  1.6736 -0.4891
   44POPC  H18S 5852   2.879   1.500   4.074  1.1554  0.6095  0.4768
   44POPC  H18T 5853   2.762   1.627   4.068 -0.0465  1.2653  0.4268
   44POPC   C33 5854   1.867   1.682   5.092  0.3026  0.5499 -0.1024
   44POPC   H3X 5855   1.828   1.588   5.046 -0.3335  0.0972  1.3102
   44POPC   H3Y 5856   1.964   1.704   5.043 -0.6801 -0.0477 -2.4725
   44POPC   C34 5857   1.774   1.801   5.075  1.0605 -0.3256 -0.0040
   44POPC   H4X 5858   1.814   1.898   5.111 -1.7934  0.3838  1.5896
   44POPC   H4Y 5859   1.684   1.779   5.136  1.8429 -0.4393  1.1415
   44POPC   C35 5860   1.728   1.820   4.932  0.1392 -0.0208  0.0650
   44POPC   H5X 5861   1.688   1.721   4.904 -0.7472  0.0641  0.9612
   44POPC   H5Y 5862   1.821   1.836   4.874 -1.3599 -0.7596 -2.7073
   44POPC   C36 5863   1.615   1.921   4.903  0.0826  0.5980 -0.2018
   44POPC   H6X 5864   1.522   1.903   4.961 -0.7146 -0.1958 -1.6646
   44POPC   H6Y 5865   1.582   1.891   4.801  2.3086 -0.0780 -0.7925
   44POPC   C37 5866   1.657   2.070   4.918 -0.4816 -0.3163 -0.0877
   44POPC   H7X 5867   1.746   2.080   4.852  2.5986 -1.9211  3.4521
   44POPC   H7Y 5868   1.693   2.079   5.022 -0.8492  2.8184 -0.1390
   44POPC   C38 5869   1.547   2.174   4.886  0.1417 -0.5502  0.0410
   44POPC   H8X 5870   1.558   2.262   4.953  0.0616 -1.9134  1.8901
   44POPC   H8Y 5871   1.456   2.115   4.908  0.9398 -1.1677  1.9198
   44POPC   C39 5872   1.538   2.231   4.747 -0.5265  0.1295  0.2331
   44POPC   H9X 5873   1.625   2.299   4.731 -1.4046  1.1358 -0.3730
   44POPC   H9Y 5874   1.454   2.303   4.739 -0.8765 -0.0926  1.6277
   44POPC  C310 5875   1.536   2.126   4.637  0.2959 -0.1611 -0.1501
   44POPC  H10X 5876   1.604   2.047   4.676  1.5740  1.9454  2.2536
   44POPC  H10Y 5877   1.580   2.164   4.542  2.5855 -2.5284 -0.1511
   44POPC  C311 5878   1.404   2.058   4.610 -0.4662  0.5061  0.4643
   44POPC  H11X 5879   1.363   2.000   4.695 -1.3295  2.3259  1.3482
   44POPC  H11Y 5880   1.422   1.986   4.527  1.1837  1.8876 -0.4286
   44POPC  C312 5881   1.287   2.163   4.576  0.6925 -0.4305  0.6743
   44POPC  H12X 5882   1.328   2.236   4.503  1.3018  0.1870  1.6051
   44POPC  H12Y 5883   1.261   2.222   4.667  0.1166  0.3006  0.0499
   44POPC  C313 5884   1.152   2.096   4.535  0.1901  0.1868  0.0178
   44POPC  H13X 5885   1.126   2.029   4.620  0.0760  0.5644  0.2851
   44POPC  H13Y 5886   1.171   2.034   4.445 -0.3269 -0.3706  0.2879
   44POPC  C314 5887   1.044   2.195   4.488  0.3209  0.3490  0.8311
   44POPC  H14X 5888   1.096   2.278   4.435 -2.9649  1.5132 -0.8453
   44POPC  H14Y 5889   0.976   2.239   4.564 -2.9852 -0.9788 -1.1211
   44POPC  C315 5890   0.943   2.128   4.396 -0.0172  0.6740  0.8115
   44POPC  H15X 5891   0.891   2.056   4.462 -0.0054  0.5189  0.6519
   44POPC  H15Y 5892   0.988   2.069   4.313 -0.8370 -0.4034  1.1092
   44POPC  C316 5893   0.838   2.219   4.345 -0.0944 -0.5900  0.5538
   44POPC  H16X 5894   0.906   2.299   4.308  0.9982 -1.1982  1.1915
   44POPC  H16Y 5895   0.777   2.251   4.432 -0.5336 -1.9443  0.7616
   44POPC  H16Z 5896   0.770   2.173   4.270  0.8771 -2.3677  0.7171
   45POPC     N 5897   4.141   7.027   6.054 -0.2495  0.0271 -0.3404
   45POPC   C12 5898   4.211   6.907   5.992  0.2383 -0.0026 -0.0765
   45POPC  H12A 5899   4.309   6.899   6.037  0.3777 -2.4199 -0.6781
   45POPC  H12B 5900   4.226   6.919   5.886 -0.0152 -1.1099 -0.2583
   45POPC   C13 5901   4.228   7.149   6.051 -0.0570  0.4662  0.0613
   45POPC  H13A 5902   4.186   7.222   6.118 -1.7922 -0.7912  0.4294
   45POPC  H13B 5903   4.331   7.134   6.078 -0.1451  0.5208  0.4368
   45POPC  H13C 5904   4.233   7.188   5.951  1.6029 -2.2320 -1.0313
   45POPC   C14 5905   4.021   7.062   5.976  0.7949  0.2196  0.0594
   45POPC  H14A 5906   3.955   6.978   5.963 -0.2043  1.2068 -1.5529
   45POPC  H14B 5907   3.965   7.134   6.034 -0.8622 -1.3583  0.4789
   45POPC  H14C 5908   4.031   7.109   5.879 -2.5986  1.5546  0.2412
   45POPC   C15 5909   4.106   6.999   6.193 -0.6680 -0.6670 -0.1022
   45POPC  H15A 5910   4.054   7.077   6.246  0.1577  1.2549 -1.9716
   45POPC  H15B 5911   4.192   6.965   6.250 -0.0624  0.2654 -0.4272
   45POPC  H15C 5912   4.038   6.917   6.178 -2.0355  0.4565 -0.1942
   45POPC   C11 5913   4.148   6.764   6.011 -0.3134  0.4458  0.0765
   45POPC  H11A 5914   4.174   6.739   6.116 -2.0931  1.2115  0.7464
   45POPC  H11B 5915   4.196   6.696   5.938 -0.6237 -0.9751  1.1438
   45POPC     P 5916   3.922   6.638   6.038 -0.0369  0.2196  0.1051
   45POPC   O13 5917   3.783   6.659   5.991  0.1488 -0.3317 -0.4658
   45POPC   O14 5918   3.948   6.625   6.183  0.7959 -0.4073 -0.4898
   45POPC   O12 5919   4.009   6.759   5.986  0.1777  0.1562  0.2282
   45POPC   O11 5920   3.996   6.515   5.979 -0.3077 -0.0154  0.0101
   45POPC    C1 5921   3.968   6.461   5.848  0.2582  0.2334 -0.3416
   45POPC    HA 5922   3.862   6.482   5.824  0.4276  0.6357 -0.7723
   45POPC    HB 5923   3.990   6.352   5.843 -1.0133 -0.0408 -0.2151
   45POPC    C2 5924   4.051   6.522   5.731  0.3181  0.1044  0.2111
   45POPC    HS 5925   4.155   6.541   5.764  1.2412  0.5630 -2.6691
   45POPC   O21 5926   3.983   6.644   5.688 -0.5425  0.0236  0.4290
   45POPC   C21 5927   4.066   6.745   5.654  0.2447 -0.4979 -0.2791
   45POPC   O22 5928   4.186   6.747   5.661  0.0188  0.3248  0.1720
   45POPC   C22 5929   3.968   6.861   5.610 -0.1457 -0.1228  0.0722
   45POPC   H2R 5930   3.916   6.905   5.697  0.1407 -0.4598  0.4168
   45POPC   H2S 5931   3.895   6.810   5.543  0.8170 -0.7563 -0.5228
   45POPC    C3 5932   4.053   6.420   5.610 -0.6721  0.0914 -0.4186
   45POPC    HX 5933   3.959   6.362   5.612 -0.5373 -0.1099  1.3310
   45POPC    HY 5934   4.127   6.340   5.629  1.1942  1.4350 -1.5877
   45POPC   O31 5935   4.079   6.477   5.480 -0.4623 -0.6723 -0.0283
   45POPC   C31 5936   3.973   6.510   5.407  0.5123 -0.3654 -0.1690
   45POPC   O32 5937   3.858   6.498   5.443 -0.4412 -0.6486  0.1956
   45POPC   C32 5938   4.029   6.570   5.270 -0.1548 -0.5666 -0.0921
   45POPC   H2X 5939   4.096   6.495   5.225 -0.4504 -0.1140 -1.3180
   45POPC   H2Y 5940   4.084   6.664   5.294 -0.0090 -0.4913 -0.7276
   45POPC   C23 5941   4.033   6.985   5.538 -0.0348  0.0640 -0.4953
   45POPC   H3R 5942   4.135   6.969   5.496  0.6961  1.3349  0.7339
   45POPC   H3S 5943   4.046   7.058   5.620 -1.1580 -1.2839  0.9307
   45POPC   C24 5944   3.951   7.033   5.428 -0.7603 -0.1236 -0.6074
   45POPC   H4R 5945   3.864   7.079   5.479  0.7485  0.1074  1.9406
   45POPC   H4S 5946   3.921   6.942   5.371 -1.5240 -0.9266  1.0187
   45POPC   C25 5947   4.023   7.137   5.341  0.0642  0.3021 -0.7349
   45POPC   H5R 5948   4.118   7.088   5.310  0.0479 -0.2381  0.0364
   45POPC   H5S 5949   4.044   7.231   5.396  2.0119 -0.7169  0.3743
   45POPC   C26 5950   3.950   7.155   5.207  0.5708  0.3808 -0.3098
   45POPC   H6R 5951   3.855   7.211   5.216 -0.9329 -1.3504 -3.7376
   45POPC   H6S 5952   3.934   7.058   5.156 -1.0320  0.6512 -0.3643
   45POPC   C27 5953   4.042   7.240   5.114  0.7218 -0.4257  0.1992
   45POPC   H7R 5954   4.055   7.339   5.163  1.7713 -1.0925  1.3427
   45POPC   H7S 5955   3.987   7.245   5.018  2.4808  2.2722 -0.7766
   45POPC   C28 5956   4.180   7.190   5.072 -0.3801  0.5106 -0.0645
   45POPC   H8R 5957   4.255   7.208   5.152 -0.5704  0.4539  0.1271
   45POPC   H8S 5958   4.223   7.248   4.988 -1.1869  1.6303  0.2689
   45POPC   C29 5959   4.190   7.041   5.050 -0.4990 -0.1549 -0.6071
   45POPC   H91 5960   4.186   6.986   5.145  0.9045  2.1392  0.8825
   45POPC  C210 5961   4.175   6.972   4.934  0.5191  0.1636 -0.4263
   45POPC  H101 5962   4.174   6.862   4.938 -1.5809  0.0787 -1.6423
   45POPC  C211 5963   4.136   7.044   4.806 -0.3980 -0.1573  0.3833
   45POPC  H11R 5964   4.198   7.137   4.801 -0.0566 -0.3747  0.5755
   45POPC  H11S 5965   4.030   7.078   4.811 -1.0137 -1.5603 -1.5657
   45POPC  C212 5966   4.146   6.961   4.681 -0.2658 -0.1775  1.0153
   45POPC  H12R 5967   4.071   6.880   4.671  1.1237 -1.5507  1.1962
   45POPC  H12S 5968   4.244   6.908   4.689 -0.7361 -1.3205 -0.3775
   45POPC  C213 5969   4.148   7.035   4.547 -0.0958 -0.1163 -0.3743
   45POPC  H13R 5970   4.202   7.130   4.563  3.8805 -2.1916 -0.2793
   45POPC  H13S 5971   4.048   7.063   4.508 -0.0917  0.8950  0.3106
   45POPC  C214 5972   4.224   6.948   4.443 -0.0297  0.3508 -0.5918
   45POPC  H14R 5973   4.177   6.848   4.432  0.2427  0.1205  0.2578
   45POPC  H14S 5974   4.323   6.921   4.485 -0.8746 -1.2012  0.4918
   45POPC  C215 5975   4.257   7.026   4.312 -0.1047  0.5241 -0.2206
   45POPC  H15R 5976   4.354   7.078   4.328  1.6550 -2.5258 -0.1311
   45POPC  H15S 5977   4.181   7.097   4.274  0.4468  0.9448 -0.5532
   45POPC  C216 5978   4.283   6.931   4.198 -0.3342  0.8421 -0.2253
   45POPC  H16R 5979   4.212   6.846   4.180  0.4243 -0.1441  1.2176
   45POPC  H16S 5980   4.378   6.877   4.213 -0.5161 -0.2271 -2.3998
   45POPC  C217 5981   4.299   7.013   4.069  0.5309 -0.3638  0.4813
   45POPC  H17R 5982   4.380   7.088   4.083 -0.1514  0.7449 -1.2180
   45POPC  H17S 5983   4.203   7.066   4.047  0.1849 -1.3195 -0.3963
   45POPC  C218 5984   4.327   6.937   3.943  0.5252  0.2171  0.0777
   45POPC  H18R 5985   4.256   6.852   3.939 -0.5674  1.0320  1.2523
   45POPC  H18S 5986   4.428   6.893   3.954  1.0083  1.0542 -0.8401
   45POPC  H18T 5987   4.322   6.998   3.849 -0.0430  0.1301  0.0466
   45POPC   C33 5988   3.918   6.619   5.163  0.3915 -0.3205  0.1209
   45POPC   H3X 5989   3.860   6.703   5.207  0.1711  0.0323 -0.8247
   45POPC   H3Y 5990   3.844   6.537   5.149  0.6484 -0.4752 -0.3426
   45POPC   C34 5991   3.971   6.640   5.021 -0.0158 -0.5757  0.3006
   45POPC   H4X 5992   4.045   6.720   5.000 -0.2340 -0.4506  0.0090
   45POPC   H4Y 5993   3.886   6.671   4.956  0.3207 -1.1016 -0.4048
   45POPC   C35 5994   4.019   6.515   4.948  0.1156 -0.2399 -0.2812
   45POPC   H5X 5995   3.936   6.440   4.943 -1.2202  1.2467 -1.4068
   45POPC   H5Y 5996   4.104   6.467   5.001  2.0255  0.3311 -2.6507
   45POPC   C36 5997   4.066   6.545   4.809 -0.2889 -0.3846  0.5559
   45POPC   H6X 5998   4.137   6.464   4.784 -0.3422 -0.4191  0.5143
   45POPC   H6Y 5999   4.123   6.640   4.806 -3.2327  1.5101 -0.8175
   45POPC   C37 6000   3.963   6.546   4.700 -0.5615  0.6866 -0.0859
   45POPC   H7X 6001   3.877   6.612   4.726 -0.9362  0.0323  0.3874
   45POPC   H7Y 6002   3.928   6.441   4.685  2.1104 -0.2385 -0.4647
   45POPC   C38 6003   4.006   6.595   4.558  0.7808  0.1434 -0.1024
   45POPC   H8X 6004   4.094   6.535   4.526  0.6996  1.0390 -2.1765
   45POPC   H8Y 6005   4.038   6.700   4.577 -1.1848  0.4476  1.9628
   45POPC   C39 6006   3.902   6.594   4.446 -0.1425 -0.3158 -0.1800
   45POPC   H9X 6007   3.821   6.668   4.463  0.8981  0.6060  1.0652
   45POPC   H9Y 6008   3.865   6.490   4.442 -1.2211  0.0732 -0.8333
   45POPC  C310 6009   3.965   6.617   4.307  0.2415 -0.8362  0.4949
   45POPC  H10X 6010   4.000   6.723   4.314 -1.9909  0.2218 -2.3083
   45POPC  H10Y 6011   3.891   6.618   4.224  0.0099 -1.8545  0.6812
   45POPC  C311 6012   4.065   6.508   4.259 -0.5764 -0.5615 -0.5662
   45POPC  H11X 6013   4.132   6.484   4.344 -1.7493 -2.8456 -0.1955
   45POPC  H11Y 6014   4.116   6.537   4.165 -0.5387  1.5521  0.0369
   45POPC  C312 6015   3.996   6.377   4.228 -0.1218  0.4681  0.6755
   45POPC  H12X 6016   3.928   6.388   4.141  0.6211  1.1357  0.1628
   45POPC  H12Y 6017   3.941   6.341   4.318  0.4413  1.8290  1.5958
   45POPC  C313 6018   4.104   6.269   4.195  0.1373 -0.6012 -0.4173
   45POPC  H13X 6019   4.058   6.168   4.203  0.8102 -0.9693 -1.0639
   45POPC  H13Y 6020   4.180   6.265   4.276  0.0458 -0.8074 -0.3393
   45POPC  C314 6021   4.180   6.284   4.060  0.2943 -0.0062 -1.0475
   45POPC  H14X 6022   4.252   6.369   4.064 -0.6266  0.7763 -0.5070
   45POPC  H14Y 6023   4.107   6.312   3.981 -0.5205  0.4476 -0.1469
   45POPC  C315 6024   4.257   6.156   4.031  0.0337 -0.0954  0.3121
   45POPC  H15X 6025   4.300   6.165   3.929  0.6741  0.0997  0.5986
   45POPC  H15Y 6026   4.186   6.070   4.027  3.0489 -2.8393  0.8570
   45POPC  C316 6027   4.373   6.131   4.123  0.7738 -0.4179  0.5257
   45POPC  H16X 6028   4.335   6.079   4.213 -1.6663 -1.4880 -1.0309
   45POPC  H16Y 6029   4.428   6.226   4.140  0.6835 -0.4169  0.8122
   45POPC  H16Z 6030   4.445   6.072   4.063  1.3753  2.7063 -2.1256
   46POPC     N 6031   8.081   6.423   6.087  0.3831  0.2215  0.6330
   46POPC   C12 6032   8.105   6.361   5.956 -0.1117 -0.0872 -0.1409
   46POPC  H12A 6033   8.195   6.303   5.968 -0.1815 -0.3148 -0.7094
   46POPC  H12B 6034   8.125   6.438   5.883 -1.2485 -0.9050 -1.3663
   46POPC   C13 6035   7.949   6.494   6.087  0.2044 -0.7860 -0.1139
   46POPC  H13A 6036   7.937   6.538   6.185  1.9019 -1.2734  0.3559
   46POPC  H13B 6037   7.943   6.561   6.003 -0.0469 -0.5090  0.1228
   46POPC  H13C 6038   7.871   6.420   6.073  1.7672 -2.7905  1.1164
   46POPC   C14 6039   8.083   6.326   6.198  0.5382 -0.1286  0.1035
   46POPC  H14A 6040   8.009   6.249   6.184  1.3293 -1.0315  0.7567
   46POPC  H14B 6041   8.180   6.279   6.206  1.0714  0.9992  0.5942
   46POPC  H14C 6042   8.052   6.372   6.291  0.8060  1.4183 -0.5302
   46POPC   C15 6043   8.188   6.531   6.100 -0.1945  0.4611  0.2423
   46POPC  H15A 6044   8.183   6.589   6.191 -1.6922  2.1779 -0.8601
   46POPC  H15B 6045   8.192   6.612   6.028  3.0530  0.5066  0.3000
   46POPC  H15C 6046   8.283   6.479   6.092 -0.6626 -0.1337 -3.1768
   46POPC   C11 6047   7.999   6.271   5.891 -0.1312  0.2930  1.0150
   46POPC  H11A 6048   8.046   6.226   5.802  1.7822  0.6504  1.7899
   46POPC  H11B 6049   7.918   6.333   5.848 -0.0687 -0.2197  0.1564
   46POPC     P 6050   7.821   6.127   6.023  0.0267  0.5852  0.0221
   46POPC   O13 6051   7.724   6.238   6.016  0.0737 -0.7252  0.2198
   46POPC   O14 6052   7.848   6.071   6.156 -0.0896  0.1932 -0.0290
   46POPC   O12 6053   7.961   6.165   5.974 -0.0173 -0.7641  0.0691
   46POPC   O11 6054   7.773   6.005   5.931  0.3375  0.4488 -0.2936
   46POPC    C1 6055   7.859   5.905   5.873 -0.3172  0.2078 -0.5596
   46POPC    HA 6056   7.809   5.806   5.876 -0.0489  0.0866  0.3982
   46POPC    HB 6057   7.942   5.899   5.947 -0.4877  1.2589 -0.2542
   46POPC    C2 6058   7.912   5.923   5.730  0.5478 -0.4116  0.9026
   46POPC    HS 6059   7.985   6.007   5.739  0.9407 -0.9287  2.8018
   46POPC   O21 6060   7.803   5.956   5.643 -0.3143 -0.3537  0.6130
   46POPC   C21 6061   7.807   6.078   5.585 -0.1309 -0.1731 -0.4186
   46POPC   O22 6062   7.895   6.157   5.584 -0.0958  0.0591  0.1861
   46POPC   C22 6063   7.686   6.094   5.503  0.0118  0.3254 -0.4090
   46POPC   H2R 6064   7.635   6.178   5.554  0.7208  0.8894 -0.6137
   46POPC   H2S 6065   7.631   5.997   5.500  0.9980 -0.3377  1.2967
   46POPC    C3 6066   7.971   5.800   5.670  0.3528 -0.0034 -0.1474
   46POPC    HX 6067   7.894   5.720   5.662  0.5875 -0.5901  2.4620
   46POPC    HY 6068   8.047   5.751   5.734  0.9245 -0.0831 -0.8748
   46POPC   O31 6069   8.024   5.828   5.536 -0.0432  0.1454 -0.5845
   46POPC   C31 6070   8.137   5.901   5.528  1.3123 -0.3931 -0.0747
   46POPC   O32 6071   8.200   5.946   5.621 -0.0375  0.1614  0.8275
   46POPC   C32 6072   8.161   5.929   5.383  0.0911 -0.2423 -0.4740
   46POPC   H2X 6073   8.257   5.985   5.385 -0.8543  1.4437  2.4062
   46POPC   H2Y 6074   8.077   5.992   5.348 -0.5868 -0.3254  0.9679
   46POPC   C23 6075   7.723   6.130   5.356 -0.4807  0.4380  0.2967
   46POPC   H3R 6076   7.788   6.221   5.349  0.2938 -0.0828  0.6149
   46POPC   H3S 6077   7.635   6.161   5.295 -0.3583  0.6031  0.2010
   46POPC   C24 6078   7.787   6.012   5.278  0.0612  0.3116  0.1060
   46POPC   H4R 6079   7.719   5.925   5.268  3.3941 -2.6339  0.8814
   46POPC   H4S 6080   7.869   5.962   5.334 -0.8233 -1.5136 -0.1442
   46POPC   C25 6081   7.824   6.055   5.136  0.0031 -0.3826 -0.2570
   46POPC   H5R 6082   7.906   6.129   5.149  1.6968 -2.1621 -0.3379
   46POPC   H5S 6083   7.736   6.110   5.097  0.6624  0.8658 -0.0342
   46POPC   C26 6084   7.881   5.938   5.054 -0.5110  0.1611 -0.6702
   46POPC   H6R 6085   7.801   5.860   5.047 -1.1436  0.3888  2.6706
   46POPC   H6S 6086   7.965   5.895   5.112 -1.6011 -0.3466  0.5769
   46POPC   C27 6087   7.910   5.992   4.916  0.6567 -0.7712 -1.5189
   46POPC   H7R 6088   7.964   6.088   4.925 -0.0303 -0.1560 -3.4473
   46POPC   H7S 6089   7.814   6.025   4.871  1.8089  1.5802 -2.4417
   46POPC   C28 6090   7.985   5.896   4.821  0.3431  0.9464  0.0001
   46POPC   H8R 6091   7.917   5.807   4.815  1.2174  0.3235 -1.0309
   46POPC   H8S 6092   8.081   5.880   4.875  0.7991  1.7144 -0.5680
   46POPC   C29 6093   8.000   5.964   4.693 -0.3414  0.0720  0.2089
   46POPC   H91 6094   8.079   6.039   4.679 -0.0057 -0.0968  1.1605
   46POPC  C210 6095   7.937   5.942   4.578  0.4649 -0.0039  0.2920
   46POPC  H101 6096   7.958   6.018   4.501  2.6018 -0.5194  0.2990
   46POPC  C211 6097   7.815   5.848   4.564  0.6484 -0.3502 -0.0380
   46POPC  H11R 6098   7.737   5.898   4.502 -0.9752 -0.2844  1.9780
   46POPC  H11S 6099   7.765   5.834   4.662 -0.6658 -0.2945 -0.6716
   46POPC  C212 6100   7.860   5.718   4.508 -0.1228 -0.1232  0.0322
   46POPC  H12R 6101   7.768   5.658   4.518 -0.8332  1.0449  0.7858
   46POPC  H12S 6102   7.937   5.675   4.576 -0.1037  1.0749  0.7943
   46POPC  C213 6103   7.914   5.710   4.359  0.5506  1.0519  0.2498
   46POPC  H13R 6104   7.988   5.793   4.360  1.4819  0.3884  4.0724
   46POPC  H13S 6105   7.837   5.734   4.283  1.2929 -0.3327 -0.9953
   46POPC  C214 6106   7.987   5.577   4.328  0.1529  0.3821 -0.4520
   46POPC  H14R 6107   7.912   5.496   4.338 -1.1072  1.2469 -2.2113
   46POPC  H14S 6108   8.070   5.549   4.396 -0.9270 -3.1478 -0.4263
   46POPC  C215 6109   8.032   5.578   4.173 -0.4355  0.1076  0.5233
   46POPC  H15R 6110   8.094   5.669   4.160  1.9661 -1.5881 -0.4931
   46POPC  H15S 6111   7.938   5.563   4.115  0.1619 -2.8082  0.1549
   46POPC  C216 6112   8.126   5.461   4.131  0.0928  0.0661 -0.0529
   46POPC  H16R 6113   8.087   5.366   4.172  1.9076 -0.4431  0.5946
   46POPC  H16S 6114   8.225   5.492   4.172 -0.2911  2.2585 -0.6375
   46POPC  C217 6115   8.146   5.455   3.978 -0.4733  0.1184 -0.0506
   46POPC  H17R 6116   8.053   5.477   3.921 -0.4782 -3.4469 -1.7394
   46POPC  H17S 6117   8.188   5.358   3.943  0.1300  0.9019 -1.6193
   46POPC  C218 6118   8.253   5.556   3.930 -0.0411  0.6405  0.0017
   46POPC  H18R 6119   8.277   5.556   3.822 -1.5332 -0.8834 -0.3763
   46POPC  H18S 6120   8.348   5.563   3.987  0.0155  3.3502 -0.2785
   46POPC  H18T 6121   8.211   5.657   3.953 -0.0463  0.1417  2.4635
   46POPC   C33 6122   8.184   5.808   5.295 -0.2816 -0.5291 -0.6313
   46POPC   H3X 6123   8.097   5.742   5.276 -1.9271  1.4570 -0.4314
   46POPC   H3Y 6124   8.260   5.744   5.345  0.1037  1.0415  0.9166
   46POPC   C34 6125   8.245   5.854   5.162  0.2798  0.4244  0.0956
   46POPC   H4X 6126   8.318   5.933   5.193  0.8217 -0.0421  0.0250
   46POPC   H4Y 6127   8.180   5.905   5.088 -0.0149  0.2615  0.2449
   46POPC   C35 6128   8.303   5.735   5.092  0.3279  0.0665  0.0530
   46POPC   H5X 6129   8.234   5.649   5.083  0.1554  0.1201  0.7686
   46POPC   H5Y 6130   8.383   5.700   5.162 -0.9820 -1.5013  0.8150
   46POPC   C36 6131   8.358   5.765   4.951 -0.0253 -0.2269 -0.7463
   46POPC   H6X 6132   8.427   5.851   4.956 -0.4091  0.3311 -3.3924
   46POPC   H6Y 6133   8.274   5.805   4.890 -0.4336 -1.3614 -0.9600
   46POPC   C37 6134   8.428   5.646   4.882  0.1817  0.0094 -0.1056
   46POPC   H7X 6135   8.363   5.555   4.890 -1.1140  1.0055  1.2105
   46POPC   H7Y 6136   8.526   5.624   4.930  0.1059 -0.7997 -0.3033
   46POPC   C38 6137   8.462   5.677   4.737 -0.1729 -0.0595 -0.6455
   46POPC   H8X 6138   8.551   5.743   4.733  0.4939 -0.9724 -1.5290
   46POPC   H8Y 6139   8.380   5.741   4.699 -0.3283 -0.5641 -1.1736
   46POPC   C39 6140   8.490   5.551   4.651 -0.0517  0.1510 -0.1898
   46POPC   H9X 6141   8.406   5.478   4.657  0.0880 -0.0050  5.3175
   46POPC   H9Y 6142   8.559   5.490   4.714  2.7873  1.7780 -1.5252
   46POPC  C310 6143   8.524   5.568   4.514  0.1952  0.0123  0.5653
   46POPC  H10X 6144   8.539   5.470   4.464  0.9186  0.8825 -1.0034
   46POPC  H10Y 6145   8.621   5.622   4.512  0.5240 -0.5655  0.6035
   46POPC  C311 6146   8.430   5.655   4.435 -0.0105 -0.5402 -0.2688
   46POPC  H11X 6147   8.421   5.762   4.463 -4.8141 -0.2811 -1.8669
   46POPC  H11Y 6148   8.324   5.620   4.436  0.1923 -1.4940 -3.2996
   46POPC  C312 6149   8.467   5.661   4.284  0.0446  0.1215  0.1251
   46POPC  H12X 6150   8.439   5.560   4.245  2.1320 -0.6746  0.5288
   46POPC  H12Y 6151   8.575   5.688   4.289  0.3749 -1.1923  0.6565
   46POPC  C313 6152   8.388   5.776   4.225 -0.5146  0.2587 -0.6236
   46POPC  H13X 6153   8.287   5.785   4.271 -1.5433 -3.0170 -1.9351
   46POPC  H13Y 6154   8.371   5.745   4.119 -3.5359  1.3730 -0.5658
   46POPC  C314 6155   8.451   5.910   4.232  0.1880  0.1247  0.3774
   46POPC  H14X 6156   8.557   5.901   4.201  0.3034  0.5161  0.6447
   46POPC  H14Y 6157   8.436   5.952   4.334 -0.8339 -1.9749  1.1571
   46POPC  C315 6158   8.396   6.013   4.130  0.0265  0.2921  0.0370
   46POPC  H15X 6159   8.285   6.008   4.123  0.1446  0.5134 -3.9059
   46POPC  H15Y 6160   8.430   5.973   4.032  1.6795 -2.2129  1.5077
   46POPC  C316 6161   8.437   6.158   4.155 -0.9048 -0.3512 -0.3250
   46POPC  H16X 6162   8.408   6.179   4.260 -0.9386  0.9866 -0.5847
   46POPC  H16Y 6163   8.375   6.220   4.087  2.2242  1.9355 -1.3741
   46POPC  H16Z 6164   8.543   6.189   4.139 -0.6145 -1.6870 -1.1043
   47POPC     N 6165   3.316   6.740   6.044  0.1491  0.1996 -0.7845
   47POPC   C12 6166   3.244   6.817   5.936  0.7682 -0.3573  0.2371
   47POPC  H12A 6167   3.167   6.753   5.898  1.5680 -0.8337 -0.6241
   47POPC  H12B 6168   3.317   6.843   5.861 -0.0982  0.8132 -0.2280
   47POPC   C13 6169   3.346   6.604   5.999  0.6341 -0.3593  0.5298
   47POPC  H13A 6170   3.255   6.547   5.982  0.4749  0.1011 -0.1983
   47POPC  H13B 6171   3.404   6.594   5.909 -1.5624 -2.6673 -0.7475
   47POPC  H13C 6172   3.394   6.542   6.073  2.0517  0.5899  0.4367
   47POPC   C14 6173   3.439   6.814   6.081 -1.0311  1.4726 -0.4651
   47POPC  H14A 6174   3.480   6.785   6.176  0.0659  0.2985 -1.2519
   47POPC  H14B 6175   3.525   6.793   6.018  0.6362  1.9807  1.5482
   47POPC  H14C 6176   3.423   6.920   6.089  2.1490  2.0922 -1.0556
   47POPC   C15 6177   3.231   6.749   6.168  0.1960  0.3536 -0.4318
   47POPC  H15A 6178   3.194   6.849   6.180  0.1070  0.1519  1.2748
   47POPC  H15B 6179   3.294   6.724   6.252 -2.8769 -0.9409  1.6980
   47POPC  H15C 6180   3.150   6.677   6.165 -1.4321  2.1416 -0.9908
   47POPC   C11 6181   3.183   6.960   5.966 -0.5129  0.0744 -0.2890
   47POPC  H11A 6182   3.098   6.942   6.036  0.5150 -0.7466  0.7930
   47POPC  H11B 6183   3.148   6.990   5.865 -1.7000  0.1036  0.1086
   47POPC     P 6184   3.252   7.197   6.051  0.2964  0.4542  0.3412
   47POPC   O13 6185   3.345   7.231   6.161 -0.0616 -0.3877  0.1469
   47POPC   O14 6186   3.109   7.219   6.073 -0.1887  0.3177  0.1851
   47POPC   O12 6187   3.282   7.044   6.012  0.0936 -0.4415  0.3724
   47POPC   O11 6188   3.304   7.281   5.929  0.5156 -0.5070 -0.3699
   47POPC    C1 6189   3.425   7.247   5.863 -0.1622  0.3047  0.4741
   47POPC    HA 6190   3.492   7.184   5.925 -0.7709 -2.6872 -1.6831
   47POPC    HB 6191   3.480   7.339   5.834 -0.8585  0.3846 -0.6425
   47POPC    C2 6192   3.388   7.174   5.733 -0.1205  0.3767  0.0805
   47POPC    HS 6193   3.315   7.092   5.753  0.2028 -0.5101 -2.1856
   47POPC   O21 6194   3.502   7.123   5.672  0.1590 -0.4896  1.1315
   47POPC   C21 6195   3.481   7.016   5.598 -0.2261  0.7637 -0.4946
   47POPC   O22 6196   3.386   6.939   5.617 -0.2479  0.1538 -0.2098
   47POPC   C22 6197   3.587   7.010   5.489  0.4020  0.5660 -0.1643
   47POPC   H2R 6198   3.659   6.929   5.514  0.2979  0.3326 -0.6115
   47POPC   H2S 6199   3.638   7.109   5.486 -2.0994  1.9277 -0.3182
   47POPC    C3 6200   3.319   7.273   5.634 -0.6012 -0.9072  0.3773
   47POPC    HX 6201   3.373   7.370   5.625 -1.2419 -0.6038 -0.4039
   47POPC    HY 6202   3.230   7.293   5.698 -0.7266  0.6060 -0.2216
   47POPC   O31 6203   3.282   7.221   5.498 -0.1524 -0.5794  0.5141
   47POPC   C31 6204   3.165   7.156   5.493  0.2439 -0.6678  0.1018
   47POPC   O32 6205   3.088   7.137   5.585  0.0065 -0.0885 -0.0829
   47POPC   C32 6206   3.126   7.104   5.357 -0.1416 -0.1419 -0.5487
   47POPC   H2X 6207   3.015   7.096   5.355 -0.3102  1.0897  1.5337
   47POPC   H2Y 6208   3.183   7.011   5.337  2.5071  0.8888  1.6271
   47POPC   C23 6209   3.507   6.987   5.358 -0.0374  0.2072 -1.0558
   47POPC   H3R 6210   3.432   7.067   5.340 -0.4130 -0.0413 -0.6215
   47POPC   H3S 6211   3.462   6.885   5.362  0.9506 -0.2046  0.6713
   47POPC   C24 6212   3.601   6.985   5.230  0.5230 -0.0026  0.1823
   47POPC   H4R 6213   3.688   6.924   5.262  0.7939  0.8969  1.2139
   47POPC   H4S 6214   3.652   7.081   5.210  1.3227 -0.4406  0.0664
   47POPC   C25 6215   3.550   6.912   5.107 -0.4824  0.3618  0.0496
   47POPC   H5R 6216   3.440   6.924   5.100 -0.3764  1.7445  0.5029
   47POPC   H5S 6217   3.577   6.806   5.123  1.1120  0.3748 -2.1300
   47POPC   C26 6218   3.631   6.953   4.981 -0.1413  0.7229  0.8933
   47POPC   H6R 6219   3.606   6.884   4.897 -0.3628 -1.4862  2.6819
   47POPC   H6S 6220   3.738   6.934   5.004  0.4006  2.3733 -0.0505
   47POPC   C27 6221   3.626   7.093   4.930 -0.6826 -0.3333 -0.9598
   47POPC   H7R 6222   3.715   7.144   4.971 -0.8708 -1.2969  0.7137
   47POPC   H7S 6223   3.534   7.138   4.972  1.4631  0.1202  3.8517
   47POPC   C28 6224   3.642   7.100   4.780 -0.0312 -0.4331 -0.0931
   47POPC   H8R 6225   3.703   7.013   4.746 -0.1922  0.7274 -3.7711
   47POPC   H8S 6226   3.702   7.191   4.760  0.0766 -0.5841 -0.4661
   47POPC   C29 6227   3.516   7.093   4.693 -0.1575 -0.4671 -0.5706
   47POPC   H91 6228   3.431   7.047   4.745  0.4794  0.3869  1.3310
   47POPC  C210 6229   3.504   7.147   4.565 -0.8831  0.9610 -0.7503
   47POPC  H101 6230   3.420   7.113   4.503  0.5192 -1.7100 -1.3256
   47POPC  C211 6231   3.611   7.215   4.483 -0.1082 -0.0097  0.8002
   47POPC  H11R 6232   3.665   7.293   4.540  0.9748 -0.3691  0.2834
   47POPC  H11S 6233   3.560   7.264   4.397  1.0241 -1.3634 -0.6936
   47POPC  C212 6234   3.715   7.118   4.425  0.4670  0.8471  0.2514
   47POPC  H12R 6235   3.770   7.071   4.510 -0.1597 -2.1693 -0.9047
   47POPC  H12S 6236   3.790   7.184   4.376  1.9918 -1.0134 -0.0528
   47POPC  C213 6237   3.659   7.022   4.327 -0.7842  0.5856 -0.2369
   47POPC  H13R 6238   3.576   7.067   4.268 -3.3611 -0.3415  2.4338
   47POPC  H13S 6239   3.613   6.942   4.389 -1.5974  1.1887 -0.0483
   47POPC  C214 6240   3.764   6.940   4.251 -0.2456  0.9808 -0.0531
   47POPC  H14R 6241   3.725   6.844   4.209  0.8414  0.7870 -0.6349
   47POPC  H14S 6242   3.840   6.912   4.327 -0.3351 -0.0633 -0.3239
   47POPC  C215 6243   3.815   7.011   4.135  0.0611 -0.4677  0.2412
   47POPC  H15R 6244   3.862   7.102   4.180 -0.3810  0.2404 -0.6890
   47POPC  H15S 6245   3.732   7.052   4.074  0.2544 -0.3757  0.0411
   47POPC  C216 6246   3.928   6.950   4.052 -0.2969 -0.3780  0.6914
   47POPC  H16R 6247   4.011   6.919   4.120  0.3781  0.3105  0.2049
   47POPC  H16S 6248   3.963   7.025   3.978 -0.0541 -1.3023 -0.1563
   47POPC  C217 6249   3.875   6.831   3.973  0.2115 -0.1382  0.1589
   47POPC  H17R 6250   3.802   6.865   3.897  1.0331  0.1333 -0.5117
   47POPC  H17S 6251   3.822   6.753   4.032  1.6359 -1.2737  0.0166
   47POPC  C218 6252   3.985   6.757   3.894 -0.3809 -0.6342  0.7686
   47POPC  H18R 6253   3.949   6.701   3.805  0.3764  1.3717 -0.8670
   47POPC  H18S 6254   4.049   6.694   3.961 -0.0140  1.3423  2.3671
   47POPC  H18T 6255   4.062   6.823   3.849 -0.0854 -2.2850 -1.3356
   47POPC   C33 6256   3.178   7.202   5.240 -0.5343 -0.1198  0.0918
   47POPC   H3X 6257   3.284   7.232   5.250 -0.2464 -0.6568 -1.2420
   47POPC   H3Y 6258   3.123   7.299   5.239  0.8243  0.6673 -0.3263
   47POPC   C34 6259   3.163   7.146   5.097 -0.2843  0.3603  0.2252
   47POPC   H4X 6260   3.056   7.118   5.085 -0.7145  2.2220 -0.5690
   47POPC   H4Y 6261   3.227   7.055   5.094  1.0459  1.1890  1.8715
   47POPC   C35 6262   3.215   7.239   4.991 -0.1390  0.1095  0.5505
   47POPC   H5X 6263   3.326   7.236   4.993  0.0912  0.8230 -3.4564
   47POPC   H5Y 6264   3.183   7.344   5.005 -0.5195  0.2435 -1.1458
   47POPC   C36 6265   3.171   7.200   4.848  0.7384 -0.7664  0.1646
   47POPC   H6X 6266   3.061   7.185   4.848  0.8465 -1.9502 -2.3392
   47POPC   H6Y 6267   3.212   7.105   4.808  0.0213 -0.2522 -1.8775
   47POPC   C37 6268   3.202   7.314   4.743  0.4856 -0.1090  0.7466
   47POPC   H7X 6269   3.309   7.345   4.743  0.2972  0.5804 -0.4321
   47POPC   H7Y 6270   3.148   7.402   4.784  1.2616  0.5800  0.3249
   47POPC   C38 6271   3.167   7.272   4.594  0.1818 -0.4582 -0.3069
   47POPC   H8X 6272   3.058   7.251   4.586 -0.3346  2.0057 -0.3516
   47POPC   H8Y 6273   3.222   7.181   4.561 -0.1812 -1.8833  2.6920
   47POPC   C39 6274   3.208   7.385   4.496  0.6750 -0.2587 -0.1457
   47POPC   H9X 6275   3.317   7.403   4.506  0.9264  0.0132 -2.8314
   47POPC   H9Y 6276   3.148   7.469   4.538  0.0443 -1.1560  0.7990
   47POPC  C310 6277   3.170   7.365   4.354  0.4718  0.0169  0.1234
   47POPC  H10X 6278   3.060   7.367   4.343  0.5487 -2.7669 -2.5447
   47POPC  H10Y 6279   3.184   7.260   4.320  1.7638 -0.1719  1.1377
   47POPC  C311 6280   3.240   7.467   4.256  0.7470 -0.5213 -0.6696
   47POPC  H11X 6281   3.348   7.481   4.279  0.7066  0.2274 -0.8906
   47POPC  H11Y 6282   3.193   7.566   4.277  1.9728  0.0333 -0.4375
   47POPC  C312 6283   3.213   7.457   4.107 -0.2549 -0.3342  0.0774
   47POPC  H12X 6284   3.106   7.471   4.084  0.1423  3.2839 -0.1394
   47POPC  H12Y 6285   3.252   7.357   4.076 -1.3991 -0.8269  0.1829
   47POPC  C313 6286   3.300   7.567   4.034  0.5769  0.5626 -0.2807
   47POPC  H13X 6287   3.402   7.569   4.080  0.2977 -1.2419  0.5079
   47POPC  H13Y 6288   3.267   7.671   4.051 -0.0736  0.3313 -0.0929
   47POPC  C314 6289   3.298   7.537   3.883 -0.2043 -0.0944 -0.3859
   47POPC  H14X 6290   3.196   7.544   3.839  1.1139 -1.7189 -4.1066
   47POPC  H14Y 6291   3.336   7.433   3.869 -2.8939 -1.2918  0.4425
   47POPC  C315 6292   3.399   7.632   3.804 -0.0262  0.4529 -0.7115
   47POPC  H15X 6293   3.381   7.592   3.702  2.0571 -1.9608 -0.2446
   47POPC  H15Y 6294   3.504   7.606   3.830 -0.2972  1.1520  1.2674
   47POPC  C316 6295   3.374   7.783   3.798  0.4050 -0.0910 -0.0703
   47POPC  H16X 6296   3.404   7.841   3.888  2.2522  1.4498 -1.5618
   47POPC  H16Y 6297   3.266   7.799   3.780  0.0827 -1.0529  0.8894
   47POPC  H16Z 6298   3.437   7.838   3.725  1.2345 -1.7875 -0.6692
   48POPC     N 6299   2.288   0.368   5.822  0.3410 -0.2151 -0.2210
   48POPC   C12 6300   2.391   0.271   5.885  0.6910 -0.0447 -0.7985
   48POPC  H12A 6301   2.366   0.260   5.989 -1.9955 -0.9311 -1.4628
   48POPC  H12B 6302   2.486   0.321   5.876 -1.0969  3.5083 -2.1972
   48POPC   C13 6303   2.147   0.348   5.864 -0.2223  0.0141 -0.3863
   48POPC  H13A 6304   2.080   0.420   5.819  2.3137  3.5537  1.0794
   48POPC  H13B 6305   2.108   0.249   5.844 -3.9592  0.8891  1.4803
   48POPC  H13C 6306   2.153   0.366   5.970  0.0718 -0.2854 -0.3487
   48POPC   C14 6307   2.311   0.509   5.857 -0.1349 -0.2960 -0.9991
   48POPC  H14A 6308   2.398   0.547   5.806  1.3895 -2.5808 -0.2473
   48POPC  H14B 6309   2.223   0.567   5.834 -0.5912 -0.4785  0.1905
   48POPC  H14C 6310   2.317   0.522   5.964  0.2576 -1.3605 -0.8868
   48POPC   C15 6311   2.289   0.351   5.680 -0.1268 -0.2233  0.3505
   48POPC  H15A 6312   2.382   0.357   5.626  0.4269 -1.3386  1.1552
   48POPC  H15B 6313   2.229   0.429   5.633 -1.3890 -1.0893  0.4691
   48POPC  H15C 6314   2.238   0.259   5.655 -1.4963  0.5689  0.0935
   48POPC   C11 6315   2.387   0.131   5.817 -0.4822 -0.2369 -0.4663
   48POPC  H11A 6316   2.433   0.047   5.873 -3.0467 -2.1135 -1.0065
   48POPC  H11B 6317   2.455   0.144   5.730 -1.0583 -0.1951 -0.9174
   48POPC     P 6318   2.243  -0.058   5.712  0.1926 -0.1008 -0.1035
   48POPC   O13 6319   2.102  -0.078   5.673 -0.3170  0.5672  0.0620
   48POPC   O14 6320   2.306  -0.160   5.798 -0.3398  0.2877 -0.6230
   48POPC   O12 6321   2.260   0.087   5.780  0.4919  0.9469 -0.3104
   48POPC   O11 6322   2.331  -0.051   5.584  0.4265  0.1321  0.2622
   48POPC    C1 6323   2.337   0.056   5.495 -0.0061 -0.1575  0.5012
   48POPC    HA 6324   2.427   0.118   5.516 -1.4060  1.4052  2.2117
   48POPC    HB 6325   2.260   0.135   5.507 -0.5636 -0.0547 -2.8653
   48POPC    C2 6326   2.323   0.009   5.349  0.1190 -0.3933  0.8878
   48POPC    HS 6327   2.326   0.103   5.289  1.4655  0.6547  2.5192
   48POPC   O21 6328   2.202  -0.070   5.319  0.2827 -0.1482 -0.3002
   48POPC   C21 6329   2.097   0.009   5.328  0.8089 -0.3841  0.5844
   48POPC   O22 6330   2.097   0.129   5.345  0.2308 -0.0737 -0.3709
   48POPC   C22 6331   1.961  -0.061   5.302 -0.1469 -0.1507 -0.1609
   48POPC   H2R 6332   1.881   0.006   5.340  1.7927  1.1489  1.8886
   48POPC   H2S 6333   1.957  -0.162   5.348  0.8580 -0.8899 -1.6061
   48POPC    C3 6334   2.437  -0.069   5.287 -0.4759  0.7301 -0.5163
   48POPC    HX 6335   2.408  -0.094   5.183  0.4427 -0.9262 -0.4015
   48POPC    HY 6336   2.453  -0.165   5.340  0.1136  0.9212 -0.3419
   48POPC   O31 6337   2.559   0.005   5.280  0.3636 -0.4825 -0.6898
   48POPC   C31 6338   2.644  -0.013   5.180 -0.1560  0.3741 -0.6151
   48POPC   O32 6339   2.625  -0.084   5.081 -0.2292 -0.2798 -0.0531
   48POPC   C32 6340   2.759   0.088   5.198 -0.6654 -0.5621  0.3565
   48POPC   H2X 6341   2.789   0.088   5.305 -1.2329  0.1101  0.5190
   48POPC   H2Y 6342   2.715   0.190   5.191  2.4554  0.8955  0.4479
   48POPC   C23 6343   1.939  -0.077   5.146 -0.2722  0.1969  1.0104
   48POPC   H3R 6344   2.007  -0.147   5.093 -2.2497  0.1345 -1.6656
   48POPC   H3S 6345   1.946   0.024   5.100  2.2442 -0.7938 -1.1109
   48POPC   C24 6346   1.799  -0.131   5.112  0.2945  0.3157  0.5173
   48POPC   H4R 6347   1.720  -0.084   5.175 -1.9693 -1.9836 -0.4141
   48POPC   H4S 6348   1.797  -0.242   5.123 -1.2638  0.3412  0.6767
   48POPC   C25 6349   1.756  -0.106   4.962  0.1261  0.2276  0.3864
   48POPC   H5R 6350   1.781   0.002   4.956 -1.7582  0.7057  0.4756
   48POPC   H5S 6351   1.646  -0.113   4.947  0.0186  1.4300  0.4932
   48POPC   C26 6352   1.833  -0.178   4.852  0.0859 -0.9712  0.3203
   48POPC   H6R 6353   1.940  -0.150   4.861 -0.3021  2.0254 -2.5435
   48POPC   H6S 6354   1.805  -0.132   4.754 -2.0603  2.8162  2.4565
   48POPC   C27 6355   1.796  -0.324   4.820  0.1003  0.4275  0.2044
   48POPC   H7R 6356   1.685  -0.332   4.811  0.2407  0.5112 -2.1502
   48POPC   H7S 6357   1.826  -0.375   4.914  0.1550  3.1249  1.7889
   48POPC   C28 6358   1.870  -0.387   4.697  0.2927  0.4711  0.1714
   48POPC   H8R 6359   1.980  -0.379   4.703  0.8239 -1.6421 -3.3359
   48POPC   H8S 6360   1.845  -0.329   4.606 -1.2909 -3.7139 -2.3959
   48POPC   C29 6361   1.833  -0.532   4.672 -0.1599 -0.5915 -0.3307
   48POPC   H91 6362   1.827  -0.600   4.758  0.0702 -0.5449 -0.2775
   48POPC  C210 6363   1.807  -0.590   4.550 -0.0760  0.1984 -0.4387
   48POPC  H101 6364   1.784  -0.698   4.551  1.3834 -0.1531  1.4415
   48POPC  C211 6365   1.803  -0.539   4.416  0.4949 -0.3789  0.3703
   48POPC  H11R 6366   1.841  -0.435   4.419 -0.5829  0.0067  2.7249
   48POPC  H11S 6367   1.696  -0.538   4.384  0.8030 -2.4152 -0.9358
   48POPC  C212 6368   1.884  -0.602   4.298 -0.5124  0.3836  0.2534
   48POPC  H12R 6369   1.842  -0.699   4.265 -0.8410  0.5957  0.0391
   48POPC  H12S 6370   1.984  -0.624   4.340  1.1035  0.8582 -3.0509
   48POPC  C213 6371   1.900  -0.519   4.171  0.6413 -0.2703 -0.2065
   48POPC  H13R 6372   1.922  -0.412   4.188  2.0463 -0.4720 -0.6672
   48POPC  H13S 6373   1.812  -0.536   4.106  0.5763 -1.5586  0.1874
   48POPC  C214 6374   2.009  -0.567   4.072 -0.3943  0.4146 -0.1894
   48POPC  H14R 6375   1.996  -0.676   4.056 -1.2197  0.3347  0.9200
   48POPC  H14S 6376   2.099  -0.541   4.132 -0.3000  2.1966 -1.0396
   48POPC  C215 6377   2.017  -0.500   3.941 -0.0789 -0.1072  1.0238
   48POPC  H15R 6378   1.992  -0.393   3.956 -2.4650 -0.4563 -0.0543
   48POPC  H15S 6379   1.947  -0.548   3.869  0.8568 -1.1502  0.7699
   48POPC  C216 6380   2.152  -0.506   3.872 -0.8692  0.3484 -0.0895
   48POPC  H16R 6381   2.232  -0.457   3.932  1.4266 -1.4065 -1.5493
   48POPC  H16S 6382   2.159  -0.460   3.771  1.5853 -1.1526 -0.6853
   48POPC  C217 6383   2.212  -0.649   3.858 -0.1832 -0.5826  0.0408
   48POPC  H17R 6384   2.152  -0.712   3.790 -3.0638  1.4115  0.5619
   48POPC  H17S 6385   2.199  -0.705   3.954  0.6870 -0.3825  0.2878
   48POPC  C218 6386   2.360  -0.646   3.816  0.1504  0.4261 -0.0030
   48POPC  H18R 6387   2.414  -0.742   3.835 -0.3662 -0.3909 -2.3950
   48POPC  H18S 6388   2.407  -0.574   3.886 -1.7957 -0.7411  2.7075
   48POPC  H18T 6389   2.364  -0.618   3.709  2.5114 -1.3096 -0.4569
   48POPC   C33 6390   2.879   0.064   5.097 -0.1414  0.4101  1.2811
   48POPC   H3X 6391   2.911  -0.042   5.106 -0.8471  0.1214  0.4892
   48POPC   H3Y 6392   2.954   0.134   5.139  0.1920  1.1586 -0.4680
   48POPC   C34 6393   2.838   0.101   4.951 -0.5109  0.3696  0.2795
   48POPC   H4X 6394   2.741   0.053   4.926  0.2490 -1.3989  0.5858
   48POPC   H4Y 6395   2.908   0.050   4.883 -1.5366  0.4943 -0.8972
   48POPC   C35 6396   2.860   0.247   4.906 -0.0102 -0.3786 -0.2369
   48POPC   H5X 6397   2.861   0.250   4.795  0.5770  1.4515 -0.2093
   48POPC   H5Y 6398   2.964   0.277   4.932 -0.4322  0.0955  0.9570
   48POPC   C36 6399   2.760   0.345   4.968  0.7183  0.1149  0.2506
   48POPC   H6X 6400   2.780   0.388   5.069  0.8698  0.0629  0.2429
   48POPC   H6Y 6401   2.668   0.286   4.985  1.4626 -1.0921  0.1822
   48POPC   C37 6402   2.729   0.460   4.869 -0.2479  0.7503 -0.4045
   48POPC   H7X 6403   2.692   0.420   4.772  1.6937 -0.8098 -0.5628
   48POPC   H7Y 6404   2.828   0.505   4.850 -0.7494  2.2789  0.4327
   48POPC   C38 6405   2.634   0.569   4.924  0.2300 -0.7418 -1.0814
   48POPC   H8X 6406   2.695   0.660   4.943 -0.7707  0.0861 -1.7275
   48POPC   H8Y 6407   2.600   0.538   5.025 -0.4576 -2.0107 -1.6787
   48POPC   C39 6408   2.517   0.624   4.848 -0.0400 -0.4863  0.4449
   48POPC   H9X 6409   2.442   0.686   4.903 -1.1272 -0.7163 -0.7060
   48POPC   H9Y 6410   2.450   0.544   4.809 -1.2402  0.8843 -0.4265
   48POPC  C310 6411   2.568   0.699   4.721 -0.5003  0.1674 -0.4200
   48POPC  H10X 6412   2.633   0.644   4.649 -0.8593 -0.9318  0.0689
   48POPC  H10Y 6413   2.628   0.784   4.758  1.2048 -1.8241  1.7012
   48POPC  C311 6414   2.446   0.760   4.645 -0.6202  0.3627  0.0406
   48POPC  H11X 6415   2.387   0.817   4.720  0.9555  1.5641  0.4136
   48POPC  H11Y 6416   2.375   0.683   4.609 -0.3547 -0.1389  0.5628
   48POPC  C312 6417   2.491   0.853   4.527 -1.0253 -0.3242 -0.1624
   48POPC  H12X 6418   2.592   0.819   4.494 -1.3615 -1.6615  0.1272
   48POPC  H12Y 6419   2.507   0.954   4.570  2.5306 -0.0713 -1.6778
   48POPC  C313 6420   2.397   0.871   4.410 -0.4640  0.0692  0.6649
   48POPC  H13X 6421   2.390   0.966   4.352  1.1618 -0.2314 -0.0821
   48POPC  H13Y 6422   2.293   0.864   4.449  0.0513 -1.2641  1.8980
   48POPC  C314 6423   2.426   0.756   4.306  0.3858  0.0994  0.6107
   48POPC  H14X 6424   2.341   0.725   4.241  1.4887 -0.7666 -0.4837
   48POPC  H14Y 6425   2.437   0.660   4.362 -1.0417 -0.9569 -0.8089
   48POPC  C315 6426   2.554   0.772   4.222  0.0347  0.1291 -0.4152
   48POPC  H15X 6427   2.545   0.698   4.140 -2.2740 -1.6395  1.2946
   48POPC  H15Y 6428   2.645   0.751   4.281  0.4225  1.3007 -0.5721
   48POPC  C316 6429   2.570   0.900   4.142  0.5635  0.4867  0.0721
   48POPC  H16X 6430   2.564   0.980   4.219  2.2415 -0.2111  0.9739
   48POPC  H16Y 6431   2.492   0.909   4.063  1.4565 -0.3008 -0.9244
   48POPC  H16Z 6432   2.668   0.912   4.092 -0.1509  2.6701 -0.9311
   49POPC     N 6433   6.941   0.644   6.079 -0.1707 -0.0810  0.6190
   49POPC   C12 6434   6.842   0.690   5.966  0.0040  0.3277 -0.2552
   49POPC  H12A 6435   6.768   0.750   6.016 -2.1476 -2.7518  0.5814
   49POPC  H12B 6436   6.782   0.605   5.938  1.0140 -0.6994  0.5712
   49POPC   C13 6437   6.863   0.577   6.183 -0.5767  0.2203  0.1913
   49POPC  H13A 6438   6.923   0.543   6.266  2.4651 -1.4266 -2.4469
   49POPC  H13B 6439   6.784   0.641   6.220 -1.9525 -1.3280  0.0884
   49POPC  H13C 6440   6.809   0.490   6.149 -2.1170  0.1344  2.6089
   49POPC   C14 6441   7.047   0.558   6.024 -0.5700  0.1007  0.4332
   49POPC  H14A 6442   7.096   0.621   5.951 -2.1204  0.0807 -0.6780
   49POPC  H14B 6443   7.126   0.527   6.091  0.4198 -0.2876 -0.8657
   49POPC  H14C 6444   7.019   0.478   5.957  1.9595 -2.4483  2.1586
   49POPC   C15 6445   7.021   0.757   6.150  0.1111 -0.3495  0.2260
   49POPC  H15A 6446   7.096   0.696   6.198 -1.6114 -2.1491  0.7375
   49POPC  H15B 6447   6.958   0.806   6.222 -0.7301 -0.9379 -0.1085
   49POPC  H15C 6448   7.060   0.834   6.085  1.2440  1.1756  2.5557
   49POPC   C11 6449   6.899   0.765   5.850 -0.0671  0.0978  0.3206
   49POPC  H11A 6450   6.935   0.866   5.879 -0.1057 -0.0006  0.7117
   49POPC  H11B 6451   6.817   0.784   5.777  2.6207  0.4971 -2.8490
   49POPC     P 6452   7.078   0.750   5.666 -0.1017  0.3276  0.0448
   49POPC   O13 6453   7.186   0.659   5.619  0.1679  0.0331 -0.5613
   49POPC   O14 6454   7.117   0.886   5.710  0.4310  0.7905 -0.1063
   49POPC   O12 6455   6.994   0.689   5.779 -0.2261  0.4455  0.0753
   49POPC   O11 6456   6.958   0.746   5.552  0.3160  0.5908 -0.0926
   49POPC    C1 6457   6.880   0.622   5.535  0.4484 -0.0581 -0.1947
   49POPC    HA 6458   6.828   0.600   5.631  0.9455  0.8576  0.3011
   49POPC    HB 6459   6.946   0.536   5.511  0.3845 -0.7649  1.9239
   49POPC    C2 6460   6.780   0.632   5.412  0.0799 -0.2595  0.3506
   49POPC    HS 6461   6.713   0.544   5.414  3.0154 -2.7480 -1.7502
   49POPC   O21 6462   6.836   0.654   5.279 -0.2699  0.3352 -0.0502
   49POPC   C21 6463   6.910   0.555   5.234  0.2543 -0.7836  0.2109
   49POPC   O22 6464   6.920   0.443   5.282 -0.0323  0.0100 -0.4703
   49POPC   C22 6465   6.978   0.612   5.108  0.9368 -0.1219 -0.5744
   49POPC   H2R 6466   7.033   0.524   5.068  1.0672 -0.7379  0.9210
   49POPC   H2S 6467   7.048   0.687   5.151  0.2140 -0.2881  0.9617
   49POPC    C3 6468   6.672   0.751   5.437  0.2007 -0.5644 -0.2891
   49POPC    HX 6469   6.714   0.854   5.437 -2.0833  0.4451 -2.1489
   49POPC    HY 6470   6.637   0.717   5.537  1.2562 -2.2958 -0.4530
   49POPC   O31 6471   6.554   0.735   5.351  0.3653  0.0320  0.3965
   49POPC   C31 6472   6.556   0.804   5.238  0.9506 -0.2429  0.5392
   49POPC   O32 6473   6.632   0.895   5.209 -0.0494  0.1321  0.4660
   49POPC   C32 6474   6.420   0.765   5.169 -0.3517 -0.0599  0.4276
   49POPC   H2X 6475   6.340   0.758   5.246 -1.3562 -2.9306 -0.7469
   49POPC   H2Y 6476   6.434   0.662   5.131 -0.7420 -0.6278  1.7684
   49POPC   C23 6477   6.880   0.678   5.006  0.6069 -0.3226 -0.1653
   49POPC   H3R 6478   6.942   0.728   4.928  0.5737 -1.6910 -1.0960
   49POPC   H3S 6479   6.809   0.744   5.062  1.0198 -0.7732  0.9190
   49POPC   C24 6480   6.786   0.574   4.947  0.2085  0.3414  1.2037
   49POPC   H4R 6481   6.731   0.532   5.033 -1.9375 -0.1514 -0.3369
   49POPC   H4S 6482   6.838   0.485   4.906  0.1036  0.2174  1.3426
   49POPC   C25 6483   6.696   0.641   4.837 -1.2544 -0.0961  0.6984
   49POPC   H5R 6484   6.757   0.669   4.749 -0.7989  2.0058  1.6249
   49POPC   H5S 6485   6.639   0.726   4.880  1.7418  3.1763 -1.2659
   49POPC   C26 6486   6.600   0.540   4.767  0.1090 -0.2477 -0.0478
   49POPC   H6R 6487   6.650   0.449   4.729 -0.7576  0.3851 -3.0081
   49POPC   H6S 6488   6.543   0.582   4.681  0.8138 -0.7572 -0.7797
   49POPC   C27 6489   6.493   0.488   4.859  0.2638  0.4424 -0.4203
   49POPC   H7R 6490   6.447   0.577   4.906 -0.5526 -1.1863  2.1071
   49POPC   H7S 6491   6.534   0.440   4.951 -0.2677  1.6293  0.4590
   49POPC   C28 6492   6.406   0.389   4.789  0.0043  0.3797 -0.4641
   49POPC   H8R 6493   6.353   0.344   4.876  2.3905  0.1540  0.9880
   49POPC   H8S 6494   6.482   0.315   4.756 -0.3620  0.1929 -0.8870
   49POPC   C29 6495   6.318   0.435   4.675  0.9406  0.3983  0.6293
   49POPC   H91 6496   6.229   0.493   4.702 -0.7625 -1.5821 -0.3492
   49POPC  C210 6497   6.331   0.404   4.542  0.3227  0.9946  0.2726
   49POPC  H101 6498   6.251   0.441   4.476 -1.1421 -2.8129 -0.3343
   49POPC  C211 6499   6.439   0.318   4.480  0.0531  0.4042  0.3854
   49POPC  H11R 6500   6.535   0.350   4.526  0.1867  1.1774 -0.4024
   49POPC  H11S 6501   6.448   0.339   4.371  0.9365  0.7802  0.5191
   49POPC  C212 6502   6.406   0.164   4.498  0.0100  0.0596 -0.0996
   49POPC  H12R 6503   6.304   0.148   4.455  0.5434 -1.2628 -0.9578
   49POPC  H12S 6504   6.406   0.158   4.609 -0.2006 -0.4791 -0.1231
   49POPC  C213 6505   6.509   0.059   4.446 -0.3760 -0.3570  0.2810
   49POPC  H13R 6506   6.452  -0.034   4.467  0.8499 -0.7701  2.0060
   49POPC  H13S 6507   6.607   0.066   4.497  0.2708  1.4092 -1.0968
   49POPC  C214 6508   6.523   0.078   4.295  0.4472  0.2093  0.1418
   49POPC  H14R 6509   6.570   0.177   4.275  1.6684 -0.5530 -0.9471
   49POPC  H14S 6510   6.422   0.084   4.250  0.8251 -0.5139 -0.8324
   49POPC  C215 6511   6.601  -0.035   4.222  0.0339  0.0651 -0.0252
   49POPC  H15R 6512   6.701  -0.058   4.264  0.0431 -1.6985 -0.9552
   49POPC  H15S 6513   6.616  -0.009   4.115 -2.6506  1.1848 -0.2085
   49POPC  C216 6514   6.511  -0.162   4.228  0.0133  0.5740 -0.2301
   49POPC  H16R 6515   6.418  -0.143   4.172 -1.1230  0.0935  1.4240
   49POPC  H16S 6516   6.483  -0.180   4.334  2.7136 -0.8968  0.3412
   49POPC  C217 6517   6.575  -0.286   4.170  0.6093 -0.3878  0.4706
   49POPC  H17R 6518   6.520  -0.377   4.203 -0.4644 -0.0274 -0.2747
   49POPC  H17S 6519   6.686  -0.295   4.172  0.5972 -1.6399 -1.2631
   49POPC  C218 6520   6.544  -0.292   4.014  0.4395  0.2353  0.2720
   49POPC  H18R 6521   6.577  -0.390   3.973  0.5647  0.0544  0.7914
   49POPC  H18S 6522   6.596  -0.206   3.968  0.8661 -0.3616 -0.3831
   49POPC  H18T 6523   6.434  -0.288   3.998 -0.0412  0.5765  3.0054
   49POPC   C33 6524   6.365   0.860   5.062 -0.7632 -0.8434 -0.1303
   49POPC   H3X 6525   6.437   0.872   4.978 -1.0483 -2.4116 -0.6324
   49POPC   H3Y 6526   6.361   0.962   5.106 -0.5946 -0.9579  0.1510
   49POPC   C34 6527   6.225   0.837   5.000 -0.0292 -0.0956  0.2945
   49POPC   H4X 6528   6.163   0.838   5.093 -1.6442  1.3095 -0.7499
   49POPC   H4Y 6529   6.229   0.730   4.968  1.6483  0.0218  0.0484
   49POPC   C35 6530   6.197   0.935   4.886 -0.4195 -0.4677 -0.5195
   49POPC   H5X 6531   6.247   1.031   4.911  0.8122 -1.0218 -0.7741
   49POPC   H5Y 6532   6.087   0.950   4.887 -0.1009  2.6209  1.0061
   49POPC   C36 6533   6.245   0.882   4.748 -0.3519  0.9123 -0.5029
   49POPC   H6X 6534   6.172   0.809   4.706 -0.1033 -0.8819  1.9914
   49POPC   H6Y 6535   6.348   0.841   4.763 -0.3037  1.9864  3.0300
   49POPC   C37 6536   6.260   0.992   4.651 -0.3125 -0.2247 -0.3027
   49POPC   H7X 6537   6.316   1.072   4.704 -0.6973  0.1370 -0.4331
   49POPC   H7Y 6538   6.164   1.041   4.620  1.0027  2.1450 -0.8927
   49POPC   C38 6539   6.308   0.964   4.511 -0.0840 -0.2998 -0.4202
   49POPC   H8X 6540   6.414   0.934   4.516 -0.0488 -0.0201  0.6223
   49POPC   H8Y 6541   6.302   1.056   4.449 -3.1841 -0.7865 -1.0516
   49POPC   C39 6542   6.230   0.851   4.444 -0.1300 -0.1889  0.8816
   49POPC   H9X 6543   6.128   0.879   4.476 -0.0560  1.1392  0.0402
   49POPC   H9Y 6544   6.253   0.749   4.480 -0.8426 -1.0689 -0.9843
   49POPC  C310 6545   6.232   0.858   4.291  0.4630 -0.6450 -0.0228
   49POPC  H10X 6546   6.336   0.888   4.264  1.1817 -0.7416  2.3782
   49POPC  H10Y 6547   6.158   0.926   4.244  1.1807  2.1805  2.5849
   49POPC  C311 6548   6.222   0.720   4.225  0.0717  0.2533 -0.3840
   49POPC  H11X 6549   6.117   0.687   4.235  0.3188 -0.0492  1.6320
   49POPC  H11Y 6550   6.288   0.655   4.286  0.5417 -0.3035 -1.4554
   49POPC  C312 6551   6.266   0.720   4.081 -0.7886 -0.1277  0.1882
   49POPC  H12X 6552   6.376   0.719   4.068 -0.7037 -1.4558  0.8892
   49POPC  H12Y 6553   6.238   0.821   4.044  1.4202  0.4199 -0.1264
   49POPC  C313 6554   6.198   0.615   3.996  0.6486 -0.1401  0.5410
   49POPC  H13X 6555   6.089   0.632   4.004  0.6260 -0.3849  0.7552
   49POPC  H13Y 6556   6.222   0.518   4.044  4.6539 -0.3052 -1.3506
   49POPC  C314 6557   6.234   0.623   3.847 -0.6194  0.0208  0.0634
   49POPC  H14X 6558   6.345   0.626   3.842 -0.4573 -2.3289  0.8160
   49POPC  H14Y 6559   6.183   0.703   3.791 -0.6901 -0.5482 -0.7033
   49POPC  C315 6560   6.185   0.498   3.769  0.5339  0.8038 -1.0904
   49POPC  H15X 6561   6.188   0.404   3.829 -1.9768  0.8149 -0.8311
   49POPC  H15Y 6562   6.251   0.471   3.684  1.5837 -1.8353  0.4086
   49POPC  C316 6563   6.038   0.507   3.721  0.3160 -0.5656  0.1042
   49POPC  H16X 6564   5.956   0.526   3.794  0.2290  0.2703 -0.2087
   49POPC  H16Y 6565   6.013   0.408   3.676  1.1286  0.2285 -2.2401
   49POPC  H16Z 6566   6.029   0.586   3.643 -1.9660 -2.4767 -1.7330
   50POPC     N 6567   1.168   7.295   6.224  0.0347 -0.0688  0.3808
   50POPC   C12 6568   1.299   7.319   6.154 -0.0364  0.7373 -0.3462
   50POPC  H12A 6569   1.367   7.241   6.185 -0.0965  0.5343 -0.7253
   50POPC  H12B 6570   1.333   7.415   6.190 -1.7514  1.5504 -0.7825
   50POPC   C13 6571   1.195   7.297   6.376 -0.0184  0.1034 -0.0214
   50POPC  H13A 6572   1.203   7.398   6.411  0.2165 -0.2262  0.8851
   50POPC  H13B 6573   1.102   7.258   6.416 -0.3843 -1.0298 -1.8301
   50POPC  H13C 6574   1.269   7.228   6.413 -0.0343 -0.3553 -0.8020
   50POPC   C14 6575   1.062   7.387   6.186  0.0217  1.0125 -1.1125
   50POPC  H14A 6576   0.975   7.380   6.249  0.7824 -1.4382 -0.1996
   50POPC  H14B 6577   1.108   7.484   6.194  0.5473  0.7549 -0.9436
   50POPC  H14C 6578   1.042   7.372   6.081  1.0064 -2.2019 -0.9707
   50POPC   C15 6579   1.116   7.154   6.198  0.0196 -0.2410  0.2538
   50POPC  H15A 6580   1.021   7.127   6.241 -0.3321 -2.2097 -1.6226
   50POPC  H15B 6581   1.199   7.091   6.226  0.5000 -0.5919 -1.8243
   50POPC  H15C 6582   1.096   7.131   6.095  0.3066 -1.7468  0.5100
   50POPC   C11 6583   1.303   7.315   6.000 -1.0413  0.1393 -0.1643
   50POPC  H11A 6584   1.404   7.338   5.958 -1.8203  1.2317 -1.5253
   50POPC  H11B 6585   1.241   7.396   5.956 -0.3624  0.1628 -1.0935
   50POPC     P 6586   1.352   7.061   5.936 -0.0658 -0.3799 -0.1941
   50POPC   O13 6587   1.285   6.972   6.034 -0.0385 -0.1789 -0.7197
   50POPC   O14 6588   1.492   7.087   5.952  0.0714 -0.1983 -0.2881
   50POPC   O12 6589   1.264   7.191   5.934  0.0679 -0.2606 -0.3867
   50POPC   O11 6590   1.329   6.998   5.800  0.3401 -0.0423  0.2966
   50POPC    C1 6591   1.236   7.045   5.707 -0.7474 -0.1176 -0.0664
   50POPC    HA 6592   1.251   7.151   5.676 -2.0166 -0.3056 -1.4654
   50POPC    HB 6593   1.133   7.041   5.749  0.7406 -0.7266  3.8898
   50POPC    C2 6594   1.241   6.954   5.581  0.0793  0.3285  0.2715
   50POPC    HS 6595   1.187   6.863   5.614 -0.3623  1.1801  2.0626
   50POPC   O21 6596   1.382   6.943   5.531 -0.3102 -0.1417 -0.2634
   50POPC   C21 6597   1.403   6.821   5.492  0.2937  0.6341 -0.2793
   50POPC   O22 6598   1.334   6.722   5.504  0.9452 -0.0333  0.8068
   50POPC   C22 6599   1.537   6.823   5.422 -0.2642 -0.3388  0.3090
   50POPC   H2R 6600   1.602   6.745   5.467 -0.1579 -0.1369  0.5058
   50POPC   H2S 6601   1.587   6.921   5.438 -1.4986  0.4772 -0.6387
   50POPC    C3 6602   1.151   7.010   5.463  0.0879 -0.5930 -0.1173
   50POPC    HX 6603   1.193   7.107   5.428 -1.2511  0.2020  0.4254
   50POPC    HY 6604   1.048   7.031   5.496 -0.0928  0.9094 -1.4966
   50POPC   O31 6605   1.144   6.909   5.357 -0.4389  0.3710  0.4887
   50POPC   C31 6606   1.072   6.938   5.250  0.0432  0.1300 -0.4164
   50POPC   O32 6607   1.016   7.043   5.225  0.0136 -0.2675  0.1594
   50POPC   C32 6608   1.070   6.817   5.160 -0.3427  0.7221  0.2950
   50POPC   H2X 6609   0.997   6.741   5.195  0.8079 -0.9238 -0.7582
   50POPC   H2Y 6610   1.172   6.774   5.169  0.4597  2.7205  1.6813
   50POPC   C23 6611   1.517   6.795   5.273 -0.4636  0.1809 -0.5002
   50POPC   H3R 6612   1.461   6.699   5.261 -0.0111  0.1431 -2.7210
   50POPC   H3S 6613   1.623   6.772   5.248  0.0416 -1.3794  2.5095
   50POPC   C24 6614   1.460   6.909   5.184 -0.0921  0.3985 -0.2425
   50POPC   H4R 6615   1.523   7.000   5.184 -0.0831  0.3988 -1.1761
   50POPC   H4S 6616   1.362   6.942   5.225  0.4161  0.6253  0.8321
   50POPC   C25 6617   1.441   6.874   5.039  0.0628  0.1218  0.3460
   50POPC   H5R 6618   1.371   6.790   5.016 -0.1929  1.1038 -2.9906
   50POPC   H5S 6619   1.544   6.868   4.998  0.4618  1.6383  1.0760
   50POPC   C26 6620   1.382   7.000   4.962 -0.1948 -0.9339  0.4637
   50POPC   H6R 6621   1.442   7.089   4.992 -3.1074  1.4314 -0.2969
   50POPC   H6S 6622   1.284   7.027   5.007  1.2333 -0.2763  3.4953
   50POPC   C27 6623   1.393   6.973   4.815  0.3265  0.2465 -0.2430
   50POPC   H7R 6624   1.354   6.873   4.786 -1.9540  0.9649  0.1076
   50POPC   H7S 6625   1.500   6.969   4.788  0.5606 -0.5682  0.7480
   50POPC   C28 6626   1.328   7.089   4.738  0.2683 -0.0110 -0.0583
   50POPC   H8R 6627   1.379   7.186   4.752 -0.5460  1.0613 -3.5916
   50POPC   H8S 6628   1.229   7.105   4.787 -0.1788  0.3142 -1.0307
   50POPC   C29 6629   1.316   7.056   4.589 -0.0531  0.0178 -0.0114
   50POPC   H91 6630   1.237   6.984   4.563  0.8123 -0.9584  0.0125
   50POPC  C210 6631   1.376   7.127   4.490  0.0663 -0.1111 -0.0780
   50POPC  H101 6632   1.371   7.093   4.385 -1.5564 -0.9770  0.2449
   50POPC  C211 6633   1.478   7.246   4.500 -0.0097  0.9000 -0.3370
   50POPC  H11R 6634   1.579   7.214   4.464  0.5913  0.8966  1.2797
   50POPC  H11S 6635   1.482   7.280   4.605 -3.3480 -0.4009  0.3345
   50POPC  C212 6636   1.440   7.360   4.403  0.2994 -0.5574 -0.6167
   50POPC  H12R 6637   1.495   7.453   4.429 -1.1842  0.2804 -0.3838
   50POPC  H12S 6638   1.332   7.384   4.399  0.3889 -0.1037 -0.3681
   50POPC  C213 6639   1.468   7.324   4.248  0.0188  0.0578 -0.0374
   50POPC  H13R 6640   1.381   7.266   4.211 -2.3025  3.1397  0.1955
   50POPC  H13S 6641   1.568   7.274   4.250 -0.2259 -0.4765 -0.6615
   50POPC  C214 6642   1.476   7.456   4.173 -0.0562  0.3411 -0.3490
   50POPC  H14R 6643   1.578   7.492   4.145 -0.2159 -1.1515 -3.1849
   50POPC  H14S 6644   1.422   7.525   4.241 -2.8661 -0.5089 -1.5678
   50POPC  C215 6645   1.389   7.463   4.041  0.0485  0.1167  1.1371
   50POPC  H15R 6646   1.417   7.372   3.985 -2.2620 -0.4810  0.8735
   50POPC  H15S 6647   1.425   7.550   3.981  1.2209 -0.5895  0.7891
   50POPC  C216 6648   1.241   7.481   4.071 -0.1023 -0.2531 -0.2293
   50POPC  H16R 6649   1.240   7.540   4.165 -0.8814  1.7995 -1.4499
   50POPC  H16S 6650   1.181   7.387   4.078 -1.0030  0.1903 -1.5559
   50POPC  C217 6651   1.157   7.574   3.973 -0.5448  0.5144 -0.2430
   50POPC  H17R 6652   1.173   7.679   4.005 -0.5442  1.2164 -2.3666
   50POPC  H17S 6653   1.049   7.559   3.994 -0.1924 -0.6352  0.8856
   50POPC  C218 6654   1.195   7.559   3.823 -0.4121  0.0112  0.4772
   50POPC  H18R 6655   1.303   7.566   3.800 -0.7894  2.3711 -0.8831
   50POPC  H18S 6656   1.155   7.640   3.758 -2.1943  0.3989  1.9753
   50POPC  H18T 6657   1.164   7.462   3.779 -1.0084  0.7857 -0.8672
   50POPC   C33 6658   1.046   6.842   5.014 -0.1190 -0.3550 -0.4430
   50POPC   H3X 6659   1.122   6.911   4.973  1.0878 -1.2402  0.2381
   50POPC   H3Y 6660   0.947   6.889   4.992 -0.3037 -0.0911  0.8969
   50POPC   C34 6661   1.070   6.723   4.914  0.5523  0.4219  0.1413
   50POPC   H4X 6662   1.004   6.637   4.934  0.1035  0.8894  0.7078
   50POPC   H4Y 6663   1.178   6.700   4.932  0.8569  1.5688 -0.0838
   50POPC   C35 6664   1.048   6.768   4.765 -0.2987  0.5187  0.2099
   50POPC   H5X 6665   1.126   6.835   4.723 -0.5816 -1.0530 -3.2135
   50POPC   H5Y 6666   0.956   6.830   4.766  0.6107  1.9010  0.4594
   50POPC   C36 6667   1.044   6.649   4.663  0.1945 -0.2389 -0.7759
   50POPC   H6X 6668   0.949   6.594   4.677  0.6022 -0.8422 -0.3748
   50POPC   H6Y 6669   1.128   6.580   4.684  0.4208 -0.4855 -2.3542
   50POPC   C37 6670   1.050   6.690   4.520 -0.6298  0.3037  0.6031
   50POPC   H7X 6671   1.047   6.593   4.466 -2.3865  0.6368  0.0142
   50POPC   H7Y 6672   1.142   6.745   4.494 -2.5054  3.1065 -0.6155
   50POPC   C38 6673   0.929   6.767   4.480  0.2413 -0.3216 -0.0528
   50POPC   H8X 6674   0.935   6.862   4.539 -2.7249  0.3059 -0.5787
   50POPC   H8Y 6675   0.837   6.711   4.507  1.2917 -3.2480 -2.0533
   50POPC   C39 6676   0.915   6.805   4.332  0.1436 -0.3272  0.1458
   50POPC   H9X 6677   1.003   6.868   4.307 -1.0406  1.5634  0.5722
   50POPC   H9Y 6678   0.823   6.867   4.327 -1.0217 -2.0078 -0.3149
   50POPC  C310 6679   0.903   6.676   4.241 -0.0864 -0.2393 -0.1627
   50POPC  H10X 6680   0.808   6.630   4.276 -1.5866  0.6723 -2.7150
   50POPC  H10Y 6681   0.999   6.622   4.257  0.3840  0.4379 -0.6598
   50POPC  C311 6682   0.890   6.711   4.092 -0.3066  0.1732 -0.5066
   50POPC  H11X 6683   0.991   6.709   4.044  0.0900  0.6610  0.2862
   50POPC  H11Y 6684   0.849   6.814   4.084 -2.0008 -0.4692 -0.4213
   50POPC  C312 6685   0.803   6.612   4.022  0.2813 -0.1449  0.2824
   50POPC  H12X 6686   0.719   6.572   4.083 -2.1128  2.5796 -1.0161
   50POPC  H12Y 6687   0.852   6.520   3.985 -1.4864 -0.5664 -1.1468
   50POPC  C313 6688   0.742   6.677   3.894  0.5968  0.4707  0.5757
   50POPC  H13X 6689   0.782   6.777   3.867  1.6702 -0.4005 -1.2699
   50POPC  H13Y 6690   0.634   6.702   3.907 -0.0026 -2.0890  1.0639
   50POPC  C314 6691   0.760   6.605   3.761 -0.5346  0.3142 -0.1610
   50POPC  H14X 6692   0.727   6.500   3.774 -3.0442  0.5736 -3.2088
   50POPC  H14Y 6693   0.868   6.589   3.737 -0.9253  0.0126 -1.9063
   50POPC  C315 6694   0.679   6.675   3.644 -0.3809  0.4483 -0.4142
   50POPC  H15X 6695   0.725   6.776   3.649  0.7255 -0.0798  0.8986
   50POPC  H15Y 6696   0.580   6.693   3.690  1.1964 -0.1066  3.6344
   50POPC  C316 6697   0.673   6.597   3.511 -0.3604 -0.0760 -0.1799
   50POPC  H16X 6698   0.777   6.573   3.480  0.7159  0.9744  2.3788
   50POPC  H16Y 6699   0.620   6.652   3.431 -2.2800  0.8792  1.6634
   50POPC  H16Z 6700   0.624   6.498   3.526  0.2603 -0.3312  0.2063
   51POPC     N 6701   2.191   3.152   5.698 -0.9099  0.1444  0.4579
   51POPC   C12 6702   2.315   3.232   5.735  0.4813 -0.8122  0.6886
   51POPC  H12A 6703   2.303   3.330   5.690  2.0285 -1.1441 -0.5469
   51POPC  H12B 6704   2.400   3.194   5.680 -0.9309  0.9596 -3.1294
   51POPC   C13 6705   2.066   3.229   5.730 -0.4169 -0.9315  0.1749
   51POPC  H13A 6706   2.071   3.261   5.833  0.5507 -1.0085  0.1587
   51POPC  H13B 6707   2.057   3.325   5.682  0.5725  0.3160  2.3542
   51POPC  H13C 6708   1.983   3.163   5.710  0.0795 -1.5254  0.0255
   51POPC   C14 6709   2.187   3.118   5.549 -0.4256 -0.1678 -0.4657
   51POPC  H14A 6710   2.088   3.092   5.513  0.0229 -1.7720 -0.6256
   51POPC  H14B 6711   2.206   3.211   5.497 -0.4983  2.1622  3.3404
   51POPC  H14C 6712   2.272   3.060   5.516  0.2240  0.3536  0.2630
   51POPC   C15 6713   2.181   3.019   5.777 -0.1496  0.1693  0.2519
   51POPC  H15A 6714   2.085   2.971   5.769  1.0810 -2.5262  0.7218
   51POPC  H15B 6715   2.195   3.050   5.880  1.1469  0.8075 -0.0886
   51POPC  H15C 6716   2.260   2.948   5.755 -0.6735 -0.7859  1.3444
   51POPC   C11 6717   2.345   3.248   5.888 -0.1452 -0.1727 -0.7818
   51POPC  H11A 6718   2.449   3.286   5.900  0.1784 -0.7269 -1.6882
   51POPC  H11B 6719   2.351   3.150   5.939  1.1743  0.3747  0.1743
   51POPC     P 6720   2.253   3.489   5.947  0.3006 -0.4127  0.1419
   51POPC   O13 6721   2.385   3.539   5.988  0.8129  0.1609 -0.0894
   51POPC   O14 6722   2.127   3.533   6.016 -0.6124 -0.1459  0.9171
   51POPC   O12 6723   2.257   3.335   5.966 -0.5394  0.7648  0.0576
   51POPC   O11 6724   2.236   3.511   5.796 -0.3979 -0.0620  0.2637
   51POPC    C1 6725   2.176   3.636   5.758 -0.0273 -0.1561 -0.1561
   51POPC    HA 6726   2.236   3.717   5.803  0.0888 -0.5986  0.4917
   51POPC    HB 6727   2.073   3.646   5.798 -0.8955 -1.3222 -1.9498
   51POPC    C2 6728   2.163   3.646   5.608 -0.5044  0.3415  0.2073
   51POPC    HS 6729   2.093   3.573   5.562  0.0455  0.4588 -0.8396
   51POPC   O21 6730   2.292   3.637   5.544 -0.2300  0.5008 -0.1967
   51POPC   C21 6731   2.316   3.526   5.470  0.0735  0.0228  0.3389
   51POPC   O22 6732   2.245   3.423   5.475  0.1506 -0.2284 -0.4017
   51POPC   C22 6733   2.434   3.548   5.383  0.4032  0.2912  0.3843
   51POPC   H2R 6734   2.492   3.452   5.379 -0.5659 -0.2754 -2.7496
   51POPC   H2S 6735   2.493   3.627   5.434 -1.8957  2.9068 -0.7961
   51POPC    C3 6736   2.117   3.790   5.575 -0.5202  0.5680  0.2203
   51POPC    HX 6737   2.199   3.852   5.617 -1.4232  1.7278  0.3265
   51POPC    HY 6738   2.031   3.817   5.641 -0.5951 -1.3694  0.9784
   51POPC   O31 6739   2.095   3.825   5.438 -0.2003 -0.4465 -0.0676
   51POPC   C31 6740   2.120   3.953   5.413  0.3880 -0.0032 -0.2622
   51POPC   O32 6741   2.146   4.046   5.489 -0.0245 -0.1988 -0.0901
   51POPC   C32 6742   2.090   3.980   5.266  0.1215  0.0223 -0.5958
   51POPC   H2X 6743   2.164   4.059   5.238  1.7137 -1.9283 -2.2209
   51POPC   H2Y 6744   1.989   4.026   5.260  0.9070  1.7863 -1.3209
   51POPC   C23 6745   2.401   3.576   5.240  0.1379  0.5273  0.0046
   51POPC   H3R 6746   2.393   3.686   5.226  0.2128  0.5513  0.1532
   51POPC   H3S 6747   2.298   3.539   5.218 -0.2359  0.5527  1.5946
   51POPC   C24 6748   2.506   3.525   5.141  0.6359  0.3968  0.5683
   51POPC   H4R 6749   2.603   3.524   5.195  2.2412  1.8907 -2.0804
   51POPC   H4S 6750   2.533   3.601   5.065 -2.8312  0.3102 -0.9550
   51POPC   C25 6751   2.467   3.395   5.073  0.1204 -0.3723  0.6065
   51POPC   H5R 6752   2.409   3.329   5.141  0.0399  0.2354  1.1380
   51POPC   H5S 6753   2.564   3.352   5.039  0.0354 -0.2469  0.2044
   51POPC   C26 6754   2.384   3.398   4.939  0.2212  0.4053 -0.4799
   51POPC   H6R 6755   2.454   3.451   4.871 -0.7793  2.2977 -0.1263
   51POPC   H6S 6756   2.302   3.469   4.966  1.7137  1.4180  1.7024
   51POPC   C27 6757   2.328   3.269   4.886 -0.2111 -0.4623  0.0222
   51POPC   H7R 6758   2.267   3.212   4.960  1.1908  0.6579  2.1404
   51POPC   H7S 6759   2.411   3.202   4.855 -0.5079  0.3161 -2.6326
   51POPC   C28 6760   2.244   3.276   4.757 -0.0706  0.2308 -0.4403
   51POPC   H8R 6761   2.175   3.363   4.763 -0.9934 -0.1972 -3.3106
   51POPC   H8S 6762   2.190   3.180   4.750  1.7231 -0.8486 -0.1915
   51POPC   C29 6763   2.322   3.305   4.629  0.5011  0.0033  0.9196
   51POPC   H91 6764   2.362   3.407   4.629  0.0235  0.2186 -0.4791
   51POPC  C210 6765   2.351   3.221   4.521  0.2099 -0.4227 -0.1402
   51POPC  H101 6766   2.395   3.262   4.430  0.4070  2.4193  1.1314
   51POPC  C211 6767   2.308   3.077   4.522 -0.1594 -0.5873  0.5141
   51POPC  H11R 6768   2.271   3.049   4.623 -0.9706  1.4967  0.8634
   51POPC  H11S 6769   2.385   3.004   4.490 -0.0286 -0.8730  1.4430
   51POPC  C212 6770   2.189   3.060   4.430 -0.4279  0.3031 -0.2363
   51POPC  H12R 6771   2.107   3.127   4.462  1.5078  2.3187  0.7448
   51POPC  H12S 6772   2.158   2.954   4.445  1.5006 -0.4819 -1.4601
   51POPC  C213 6773   2.230   3.085   4.283  0.7886  0.3351  0.1864
   51POPC  H13R 6774   2.302   3.009   4.245 -3.1931 -2.0615 -3.6068
   51POPC  H13S 6775   2.281   3.182   4.268  1.3641  0.0086 -0.0041
   51POPC  C214 6776   2.118   3.058   4.185 -0.4762  0.4211 -0.0532
   51POPC  H14R 6777   2.168   3.093   4.092 -1.3133  0.2509 -0.5776
   51POPC  H14S 6778   2.024   3.118   4.191 -0.0224  1.0874  0.4875
   51POPC  C215 6779   2.096   2.904   4.162  0.1849 -0.9391  0.0043
   51POPC  H15R 6780   2.058   2.869   4.261 -0.0383  1.2835  0.7629
   51POPC  H15S 6781   2.191   2.852   4.140  0.1237 -0.8718 -0.4351
   51POPC  C216 6782   1.992   2.854   4.053  0.2621 -0.4709  1.1488
   51POPC  H16R 6783   2.051   2.851   3.959  1.3362 -1.3743  1.8306
   51POPC  H16S 6784   1.910   2.928   4.040  1.6370  0.9836  0.5118
   51POPC  C217 6785   1.930   2.721   4.095 -0.5465  0.1594 -0.4824
   51POPC  H17R 6786   1.911   2.718   4.205  0.2885  1.0341 -0.2966
   51POPC  H17S 6787   2.010   2.645   4.085 -1.6951 -1.1949  0.3680
   51POPC  C218 6788   1.804   2.680   4.026  0.8530 -0.4758 -0.2684
   51POPC  H18R 6789   1.785   2.571   4.032  1.0749 -0.5758 -1.1118
   51POPC  H18S 6790   1.815   2.686   3.915 -0.0003  0.2116 -0.3247
   51POPC  H18T 6791   1.716   2.741   4.053 -0.0977 -1.7244 -0.4760
   51POPC   C33 6792   2.111   3.865   5.169 -0.3041  0.4880  1.9608
   51POPC   H3X 6793   2.025   3.796   5.176 -1.6734  2.0047  0.7131
   51POPC   H3Y 6794   2.208   3.819   5.202  1.1136  1.7670 -0.1732
   51POPC   C34 6795   2.130   3.906   5.019 -0.0001  0.7557  0.1612
   51POPC   H4X 6796   2.203   3.988   5.029 -0.0634  1.1146 -1.9093
   51POPC   H4Y 6797   2.030   3.951   5.002  0.5483  1.1092 -2.4781
   51POPC   C35 6798   2.172   3.806   4.918 -0.1414  0.1448 -0.0491
   51POPC   H5X 6799   2.112   3.714   4.934  2.1521 -1.2016  1.3658
   51POPC   H5Y 6800   2.279   3.785   4.939  0.0493  1.0450 -0.0969
   51POPC   C36 6801   2.159   3.845   4.766 -0.3442 -0.3582  0.6260
   51POPC   H6X 6802   2.217   3.938   4.746 -0.5536 -0.3267  0.1685
   51POPC   H6Y 6803   2.052   3.864   4.746 -0.1391  0.0522 -0.1388
   51POPC   C37 6804   2.197   3.738   4.669  0.5150 -0.0523  0.5424
   51POPC   H7X 6805   2.115   3.664   4.666  0.9565 -0.6481  2.1664
   51POPC   H7Y 6806   2.297   3.696   4.693 -0.0587 -0.5862  2.1444
   51POPC   C38 6807   2.202   3.786   4.519  0.1475  1.0589 -0.3896
   51POPC   H8X 6808   2.262   3.878   4.503 -1.2339  2.0803  0.0317
   51POPC   H8Y 6809   2.104   3.816   4.474 -1.5267 -4.1965 -0.9049
   51POPC   C39 6810   2.251   3.676   4.426  0.2411 -0.2926  0.1660
   51POPC   H9X 6811   2.170   3.601   4.434  0.9184 -1.1874 -0.9841
   51POPC   H9Y 6812   2.349   3.629   4.451  0.4605 -0.8368 -1.6128
   51POPC  C310 6813   2.263   3.720   4.279 -0.1173 -0.3802  0.9603
   51POPC  H10X 6814   2.316   3.818   4.277 -1.4719  0.3717  0.8329
   51POPC  H10Y 6815   2.158   3.736   4.249 -0.4576 -1.4026  1.5703
   51POPC  C311 6816   2.334   3.617   4.193  0.5131 -0.5614 -0.5124
   51POPC  H11X 6817   2.426   3.591   4.250  0.3939  0.4144  0.1510
   51POPC  H11Y 6818   2.370   3.660   4.097  0.2277 -0.2561 -0.4862
   51POPC  C312 6819   2.253   3.487   4.168  0.0571 -0.3693 -0.7546
   51POPC  H12X 6820   2.151   3.511   4.204 -0.0003  2.6762 -2.5731
   51POPC  H12Y 6821   2.284   3.397   4.226  0.1846 -0.5781 -1.1458
   51POPC  C313 6822   2.250   3.447   4.021  0.1091 -0.3902  1.4506
   51POPC  H13X 6823   2.213   3.342   4.021  0.5731 -0.5691  0.4861
   51POPC  H13Y 6824   2.355   3.464   3.990 -0.2454 -0.1685  0.3220
   51POPC  C314 6825   2.150   3.512   3.922 -0.4635 -0.8328  0.0697
   51POPC  H14X 6826   2.172   3.620   3.938 -2.1341 -0.5545  0.6947
   51POPC  H14Y 6827   2.048   3.491   3.959 -0.4411  0.8983  1.2290
   51POPC  C315 6828   2.164   3.477   3.774  0.0344  0.0367 -0.1787
   51POPC  H15X 6829   2.110   3.382   3.756  0.2382 -0.1065 -0.0404
   51POPC  H15Y 6830   2.268   3.466   3.738 -0.2851 -0.3807 -0.9987
   51POPC  C316 6831   2.096   3.576   3.676  0.6980  0.2815  0.3169
   51POPC  H16X 6832   2.121   3.675   3.721 -1.5227  0.2482  1.7995
   51POPC  H16Y 6833   1.986   3.565   3.686  0.7463  1.1070  2.2865
   51POPC  H16Z 6834   2.126   3.569   3.569 -2.5927  1.4757 -0.8114
   52POPC     N 6835   3.803   3.859   6.119  0.0508 -0.2780  0.3857
   52POPC   C12 6836   3.858   3.956   6.016  0.4596  0.0861 -0.2138
   52POPC  H12A 6837   3.962   3.971   6.038 -0.2110  2.3288  1.8993
   52POPC  H12B 6838   3.821   4.056   6.029  2.1980  0.9318 -1.4706
   52POPC   C13 6839   3.841   3.719   6.080 -0.0320  0.4303 -0.1032
   52POPC  H13A 6840   3.801   3.639   6.141  0.3476  0.8636  0.7328
   52POPC  H13B 6841   3.805   3.708   5.979 -1.0211  1.0726  0.1650
   52POPC  H13C 6842   3.947   3.719   6.063 -0.0221 -1.9826 -0.3770
   52POPC   C14 6843   3.830   3.894   6.263  0.6313 -0.0407  0.1312
   52POPC  H14A 6844   3.788   3.820   6.329 -0.1022 -0.1137 -0.4179
   52POPC  H14B 6845   3.936   3.907   6.280  0.7840  0.0683 -0.8616
   52POPC  H14C 6846   3.781   3.988   6.284 -1.2431 -0.4308 -2.1167
   52POPC   C15 6847   3.653   3.874   6.101 -0.0972 -0.1926 -0.6209
   52POPC  H15A 6848   3.599   3.832   6.186 -0.6710 -1.2193 -1.4669
   52POPC  H15B 6849   3.628   3.820   6.011  2.0861 -0.9572 -0.8271
   52POPC  H15C 6850   3.631   3.978   6.080 -1.2183 -0.6190 -1.6965
   52POPC   C11 6851   3.826   3.926   5.862 -0.6710 -0.4005 -0.1605
   52POPC  H11A 6852   3.856   3.820   5.847 -2.0028 -1.2631  2.6843
   52POPC  H11B 6853   3.894   3.984   5.796  1.7836 -0.6548  1.9841
   52POPC     P 6854   3.608   3.860   5.749 -0.0385 -0.0866 -0.3488
   52POPC   O13 6855   3.546   3.743   5.827  0.5106 -0.6301 -0.6098
   52POPC   O14 6856   3.698   3.832   5.633  0.5964  0.0229 -0.1975
   52POPC   O12 6857   3.691   3.948   5.844 -0.3866  0.8784 -0.0249
   52POPC   O11 6858   3.497   3.958   5.702  0.4349 -0.3415  0.0893
   52POPC    C1 6859   3.357   3.924   5.699 -0.0713 -0.2968 -0.7668
   52POPC    HA 6860   3.305   4.020   5.678  2.0601  0.8137 -1.3295
   52POPC    HB 6861   3.317   3.900   5.799  2.9450  1.1839  0.9253
   52POPC    C2 6862   3.315   3.817   5.590  0.2289 -0.1571 -1.1114
   52POPC    HS 6863   3.362   3.724   5.630  2.0376  1.6239  1.1514
   52POPC   O21 6864   3.378   3.858   5.463 -0.2411 -0.1049 -1.0704
   52POPC   C21 6865   3.443   3.768   5.402 -0.9119  0.5771  0.4494
   52POPC   O22 6866   3.438   3.645   5.416  0.4768  0.2947  0.2349
   52POPC   C22 6867   3.534   3.830   5.302 -0.5001  0.0445  0.7604
   52POPC   H2R 6868   3.639   3.804   5.330 -0.3299 -0.0745  0.0475
   52POPC   H2S 6869   3.515   3.939   5.292  0.9697  0.1189 -2.4101
   52POPC    C3 6870   3.161   3.805   5.567  0.0104 -0.3747  0.0089
   52POPC    HX 6871   3.124   3.901   5.524 -0.5872 -0.2618  0.7372
   52POPC    HY 6872   3.113   3.778   5.664  1.5251  0.2672  0.9762
   52POPC   O31 6873   3.135   3.705   5.464 -0.6037  0.1970 -0.2146
   52POPC   C31 6874   3.112   3.584   5.513 -0.3537  0.0898  0.3390
   52POPC   O32 6875   3.092   3.559   5.631 -0.3258  0.0632  0.0799
   52POPC   C32 6876   3.119   3.481   5.399  0.0473  0.1121  0.3577
   52POPC   H2X 6877   3.051   3.398   5.429 -0.4243  0.2638 -0.2755
   52POPC   H2Y 6878   3.221   3.439   5.384 -0.5078 -0.7129 -1.3295
   52POPC   C23 6879   3.521   3.781   5.154 -0.5064 -0.6408 -0.0301
   52POPC   H3R 6880   3.515   3.670   5.145 -4.0314 -0.4357 -3.6351
   52POPC   H3S 6881   3.607   3.821   5.097  0.2491  1.6923  2.5724
   52POPC   C24 6882   3.400   3.843   5.082 -0.0627 -0.1590  0.2779
   52POPC   H4R 6883   3.418   3.952   5.079 -1.3523  0.0529 -0.0880
   52POPC   H4S 6884   3.308   3.829   5.142 -1.5515 -0.5540 -1.9719
   52POPC   C25 6885   3.377   3.789   4.939 -0.7656  0.1738 -0.2113
   52POPC   H5R 6886   3.334   3.686   4.943  0.7957 -0.5440 -0.8379
   52POPC   H5S 6887   3.481   3.797   4.902 -0.4274 -0.3639  0.5728
   52POPC   C26 6888   3.280   3.868   4.849  0.4575  0.3215  0.3293
   52POPC   H6R 6889   3.318   3.971   4.831 -1.2964  0.3732 -4.0086
   52POPC   H6S 6890   3.180   3.877   4.896  0.0360 -1.2598 -0.1960
   52POPC   C27 6891   3.268   3.802   4.710 -0.3207  0.2764  0.0849
   52POPC   H7R 6892   3.209   3.711   4.732  1.3059 -0.9693 -0.4055
   52POPC   H7S 6893   3.368   3.763   4.678  0.2645  1.8875 -0.1402
   52POPC   C28 6894   3.213   3.891   4.594 -0.1488 -0.4076  0.0023
   52POPC   H8R 6895   3.276   3.980   4.575 -0.5524 -0.0546  0.2974
   52POPC   H8S 6896   3.113   3.932   4.620  0.3116  1.4196 -1.0145
   52POPC   C29 6897   3.213   3.815   4.462 -0.0438  0.1411 -0.2988
   52POPC   H91 6898   3.182   3.709   4.470  2.2139 -0.6791 -1.4784
   52POPC  C210 6899   3.216   3.864   4.336 -0.0442  0.1731  0.3060
   52POPC  H101 6900   3.210   3.788   4.256 -0.6699  0.3207  0.2017
   52POPC  C211 6901   3.231   4.014   4.299 -0.2685 -0.1855 -0.0045
   52POPC  H11R 6902   3.336   4.035   4.271 -0.4573 -0.6424 -1.1343
   52POPC  H11S 6903   3.207   4.079   4.386  1.1248  0.7376 -0.2821
   52POPC  C212 6904   3.133   4.059   4.186  0.3180  0.3138  0.0533
   52POPC  H12R 6905   3.032   4.025   4.218  0.6999  0.3615  1.3622
   52POPC  H12S 6906   3.163   4.004   4.094 -1.2222  0.6603 -0.7076
   52POPC  C213 6907   3.133   4.205   4.138  0.2667  0.1688 -0.2899
   52POPC  H13R 6908   3.228   4.224   4.084  0.5361  0.4678  0.2778
   52POPC  H13S 6909   3.136   4.275   4.225  1.9392 -0.7920  0.4942
   52POPC  C214 6910   3.013   4.240   4.050  0.0163  0.6615  0.1134
   52POPC  H14R 6911   2.922   4.199   4.097  0.3198 -0.6663 -0.4024
   52POPC  H14S 6912   3.036   4.182   3.958  1.7095 -1.1350  1.5866
   52POPC  C215 6913   3.005   4.388   4.012 -0.3787 -0.2391  0.1835
   52POPC  H15R 6914   3.108   4.417   3.979 -1.4446 -0.4442 -3.9376
   52POPC  H15S 6915   2.997   4.440   4.110 -1.5118  1.0697 -0.5646
   52POPC  C216 6916   2.895   4.425   3.905  0.1425  0.2072  0.6721
   52POPC  H16R 6917   2.901   4.339   3.834  0.1343 -1.4624  2.5869
   52POPC  H16S 6918   2.920   4.511   3.840 -1.3686  2.3588  2.7979
   52POPC  C217 6919   2.761   4.441   3.975  0.2858  0.0175  0.4319
   52POPC  H17R 6920   2.773   4.526   4.047 -0.1145  0.3269  0.1376
   52POPC  H17S 6921   2.729   4.354   4.036 -1.7064  0.1385 -0.3475
   52POPC  C218 6922   2.647   4.481   3.884  0.7365 -0.1953  1.1212
   52POPC  H18R 6923   2.659   4.585   3.849 -0.2287 -0.5701 -0.4152
   52POPC  H18S 6924   2.546   4.473   3.930  0.7270 -0.2351  1.0938
   52POPC  H18T 6925   2.649   4.424   3.789  0.1481  1.1499  0.2895
   52POPC   C33 6926   3.065   3.535   5.267  0.3057 -0.8512 -0.2128
   52POPC   H3X 6927   3.112   3.624   5.220  2.3241 -0.7342  1.8439
   52POPC   H3Y 6928   2.958   3.564   5.276  0.3146 -0.1154 -2.0731
   52POPC   C34 6929   3.060   3.433   5.154  0.0963 -0.0896  0.2805
   52POPC   H4X 6930   3.032   3.335   5.199 -1.9298  1.0129  1.6192
   52POPC   H4Y 6931   3.156   3.435   5.100  0.4350  0.6300  0.8910
   52POPC   C35 6932   2.950   3.468   5.048 -0.1902 -0.7201 -0.8691
   52POPC   H5X 6933   2.895   3.563   5.066  0.7567 -0.5359  1.4349
   52POPC   H5Y 6934   2.871   3.392   5.063 -1.1260  0.2421 -0.8012
   52POPC   C36 6935   3.013   3.467   4.907 -0.3577  0.3251  0.0196
   52POPC   H6X 6936   3.081   3.382   4.884  0.9366  1.5546 -0.9235
   52POPC   H6Y 6937   3.063   3.563   4.881  1.3444 -0.7131 -0.6932
   52POPC   C37 6938   2.906   3.440   4.797 -0.1204  0.4743  1.2273
   52POPC   H7X 6939   2.859   3.341   4.816  0.0047  0.1600  0.0131
   52POPC   H7Y 6940   2.956   3.431   4.698 -2.7702  1.6204 -0.3233
   52POPC   C38 6941   2.787   3.535   4.797  0.2272  0.6160  0.0961
   52POPC   H8X 6942   2.832   3.636   4.810  4.5562 -0.7005 -2.5143
   52POPC   H8Y 6943   2.727   3.521   4.889  0.5280 -1.0321  0.0703
   52POPC   C39 6944   2.694   3.547   4.669 -0.5067 -0.6941  0.7121
   52POPC   H9X 6945   2.629   3.630   4.702 -0.9081 -0.6022 -0.2813
   52POPC   H9Y 6946   2.631   3.456   4.662  2.1965 -2.7334  1.1729
   52POPC  C310 6947   2.769   3.559   4.532 -1.0265  0.5096  0.0750
   52POPC  H10X 6948   2.834   3.469   4.529  0.4055  1.5032  0.0137
   52POPC  H10Y 6949   2.846   3.639   4.522 -0.4408 -0.1734 -1.0213
   52POPC  C311 6950   2.668   3.569   4.415  0.2671  0.3199 -0.1496
   52POPC  H11X 6951   2.619   3.666   4.439  1.2539  0.3268  2.0413
   52POPC  H11Y 6952   2.589   3.491   4.425  0.9745 -0.2039  1.9439
   52POPC  C312 6953   2.722   3.566   4.279 -0.2335 -0.3162  0.6186
   52POPC  H12X 6954   2.641   3.536   4.208 -0.6993  1.3853  0.3752
   52POPC  H12Y 6955   2.810   3.499   4.284  0.1578  0.2038  0.7859
   52POPC  C313 6956   2.773   3.701   4.236 -0.5625 -0.4991  0.3488
   52POPC  H13X 6957   2.853   3.722   4.310 -0.5489  0.0428  0.1806
   52POPC  H13Y 6958   2.695   3.780   4.234 -1.3835 -1.2776 -1.7211
   52POPC  C314 6959   2.831   3.693   4.099  0.0782 -0.0756 -0.5246
   52POPC  H14X 6960   2.755   3.702   4.019  0.9591 -0.3592 -1.4198
   52POPC  H14Y 6961   2.878   3.597   4.069 -0.6727 -1.0298  1.2265
   52POPC  C315 6962   2.930   3.806   4.067 -0.1968 -0.1161 -0.1952
   52POPC  H15X 6963   3.023   3.798   4.126  0.7488 -0.6072 -1.6961
   52POPC  H15Y 6964   2.879   3.899   4.103  0.6206 -0.4934  2.1129
   52POPC  C316 6965   2.958   3.816   3.915  0.4155 -0.3905 -0.6697
   52POPC  H16X 6966   2.974   3.715   3.873  0.4390 -0.6022 -0.1550
   52POPC  H16Y 6967   3.048   3.880   3.900  2.2410 -2.3924  1.1202
   52POPC  H16Z 6968   2.869   3.862   3.867 -0.0869  1.3391  1.7528
   53POPC     N 6969   7.350   3.291   6.351  0.3391  0.2126  0.2461
   53POPC   C12 6970   7.438   3.398   6.293  0.6918  0.5057  0.3306
   53POPC  H12A 6971   7.539   3.370   6.320  1.1142  0.9052 -0.7895
   53POPC  H12B 6972   7.406   3.492   6.333  0.2368  0.1700  0.7645
   53POPC   C13 6973   7.407   3.152   6.328  0.3462 -0.3483 -0.1698
   53POPC  H13A 6974   7.503   3.125   6.369 -0.6538 -2.2318  1.0406
   53POPC  H13B 6975   7.346   3.076   6.374 -1.1882  0.6564 -0.4524
   53POPC  H13C 6976   7.407   3.133   6.221 -1.1454 -0.8111 -0.1177
   53POPC   C14 6977   7.340   3.308   6.499 -0.1986 -0.2511  0.5430
   53POPC  H14A 6978   7.298   3.403   6.531  1.4333  0.3327  1.0611
   53POPC  H14B 6979   7.273   3.230   6.531 -1.0370 -0.3327 -1.2668
   53POPC  H14C 6980   7.433   3.274   6.542  0.3212 -0.2182 -0.5254
   53POPC   C15 6981   7.210   3.295   6.297  0.6195 -0.6563 -0.1234
   53POPC  H15A 6982   7.164   3.392   6.314  1.0432 -0.6585  1.0916
   53POPC  H15B 6983   7.138   3.233   6.348  0.0608  0.5954  0.6787
   53POPC  H15C 6984   7.209   3.275   6.191 -0.1359 -0.7362 -0.1078
   53POPC   C11 6985   7.439   3.409   6.135 -0.6773  1.0581 -0.0094
   53POPC  H11A 6986   7.505   3.492   6.100  1.4663 -1.1560 -1.5914
   53POPC  H11B 6987   7.341   3.441   6.093 -0.6613  0.8107 -0.2385
   53POPC     P 6988   7.598   3.262   5.984  0.3202  0.0538 -0.1150
   53POPC   O13 6989   7.580   3.132   5.921  0.4840 -0.1218 -0.0006
   53POPC   O14 6990   7.722   3.287   6.064 -0.4838 -0.4360 -0.4265
   53POPC   O12 6991   7.476   3.274   6.085 -0.6672  0.1361 -0.6476
   53POPC   O11 6992   7.570   3.381   5.882  0.0589  0.0021  0.0558
   53POPC    C1 6993   7.468   3.369   5.779 -0.2154  0.1217 -0.5888
   53POPC    HA 6994   7.471   3.469   5.730 -2.8708  0.0814 -0.9443
   53POPC    HB 6995   7.366   3.346   5.816  0.1024 -1.3482 -0.5789
   53POPC    C2 6996   7.513   3.269   5.664  0.4392 -0.1110 -0.5893
   53POPC    HS 6997   7.500   3.166   5.703  1.3829  0.9451  2.9092
   53POPC   O21 6998   7.653   3.302   5.632  0.1203 -0.8826 -0.2137
   53POPC   C21 6999   7.699   3.217   5.547 -0.1958  0.4248 -0.8305
   53POPC   O22 7000   7.653   3.107   5.523  0.1910  0.0252  0.1527
   53POPC   C22 7001   7.835   3.268   5.493 -0.5252  0.5386 -0.2893
   53POPC   H2R 7002   7.888   3.183   5.445  1.4440  0.1645  2.3473
   53POPC   H2S 7003   7.891   3.317   5.576 -1.2112  0.5606  0.1654
   53POPC    C3 7004   7.404   3.293   5.545  0.0298  0.8150 -0.0688
   53POPC    HX 7005   7.307   3.256   5.585 -0.5503  1.5708 -0.7234
   53POPC    HY 7006   7.433   3.215   5.472 -0.2810  0.9679 -0.3641
   53POPC   O31 7007   7.392   3.424   5.485  0.4898 -0.3615 -0.2978
   53POPC   C31 7008   7.280   3.485   5.525  0.3130 -0.6285  0.3390
   53POPC   O32 7009   7.202   3.441   5.610  0.6251 -0.0308  0.7221
   53POPC   C32 7010   7.247   3.619   5.453  0.2065 -0.3407  0.1759
   53POPC   H2X 7011   7.306   3.623   5.359  2.0109 -2.5892  1.1330
   53POPC   H2Y 7012   7.265   3.704   5.522  0.9658  0.6924 -1.2348
   53POPC   C23 7013   7.809   3.383   5.394 -0.1610  0.3653 -0.2959
   53POPC   H3R 7014   7.905   3.435   5.372 -0.1356 -0.1962 -1.5731
   53POPC   H3S 7015   7.746   3.455   5.451  0.5039  0.4051  0.4159
   53POPC   C24 7016   7.744   3.340   5.257 -0.1945 -0.2225 -0.2451
   53POPC   H4R 7017   7.710   3.436   5.211  1.1733  0.7709  0.7599
   53POPC   H4S 7018   7.658   3.270   5.263  0.3802 -0.9590 -0.5090
   53POPC   C25 7019   7.848   3.301   5.159  1.1344 -0.0078 -0.4925
   53POPC   H5R 7020   7.897   3.203   5.176 -0.6291 -0.8549 -0.0557
   53POPC   H5S 7021   7.925   3.382   5.156 -0.9712  2.0975 -0.4300
   53POPC   C26 7022   7.784   3.278   5.023  1.0514  0.2471  0.5354
   53POPC   H6R 7023   7.851   3.278   4.935 -2.4357  0.0037 -2.3576
   53POPC   H6S 7024   7.709   3.358   5.004 -0.0190 -1.0260 -0.8910
   53POPC   C27 7025   7.706   3.140   5.020  0.3714 -0.1690  0.0269
   53POPC   H7R 7026   7.619   3.131   5.089 -2.2912 -0.9134 -3.1499
   53POPC   H7S 7027   7.777   3.059   5.043  0.7945  0.2638  0.2687
   53POPC   C28 7028   7.650   3.117   4.878  0.7304 -0.0276  0.0730
   53POPC   H8R 7029   7.570   3.184   4.840  1.2058  0.1987 -0.5549
   53POPC   H8S 7030   7.607   3.016   4.893  1.4116 -0.3273  0.0218
   53POPC   C29 7031   7.754   3.098   4.768 -0.2757 -0.0309 -0.4492
   53POPC   H91 7032   7.809   3.004   4.762 -0.1780  0.0027 -0.0562
   53POPC  C210 7033   7.788   3.177   4.659  0.3038  0.0135  0.2441
   53POPC  H101 7034   7.875   3.137   4.604 -0.1192 -2.2585  1.1008
   53POPC  C211 7035   7.727   3.304   4.604 -0.2806  0.0965 -0.7017
   53POPC  H11R 7036   7.805   3.384   4.603  1.0934 -1.2075 -0.9970
   53POPC  H11S 7037   7.640   3.337   4.663 -1.2212 -1.6270 -1.0773
   53POPC  C212 7038   7.682   3.292   4.456  0.4059 -1.0766  0.2582
   53POPC  H12R 7039   7.631   3.386   4.428  0.3634 -1.3761 -0.6782
   53POPC  H12S 7040   7.604   3.214   4.444  1.7656 -2.5131  0.4516
   53POPC  C213 7041   7.793   3.266   4.349 -0.2606  0.3679  0.2628
   53POPC  H13R 7042   7.731   3.213   4.274 -2.6277  0.1424  2.2247
   53POPC  H13S 7043   7.870   3.197   4.391  0.7215  0.6608 -1.0063
   53POPC  C214 7044   7.858   3.393   4.285 -0.0806 -0.1753 -0.0727
   53POPC  H14R 7045   7.914   3.450   4.362  2.1223 -1.7205 -0.4249
   53POPC  H14S 7046   7.768   3.449   4.253 -0.6224 -1.5063 -0.9909
   53POPC  C215 7047   7.950   3.350   4.174 -0.6792 -0.0228  0.3686
   53POPC  H15R 7048   7.905   3.267   4.116  1.7191 -0.8841 -0.3844
   53POPC  H15S 7049   8.039   3.290   4.205  0.1810  1.3096  0.5541
   53POPC  C216 7050   8.011   3.461   4.091 -0.2782 -0.1515 -0.1867
   53POPC  H16R 7051   8.072   3.528   4.155 -0.1937 -1.1515  0.7993
   53POPC  H16S 7052   7.921   3.511   4.047  2.6188  3.6347 -2.4789
   53POPC  C217 7053   8.102   3.410   3.982 -0.4697 -0.5143 -0.0412
   53POPC  H17R 7054   8.061   3.322   3.928  0.3488  0.6384 -2.7452
   53POPC  H17S 7055   8.191   3.371   4.036 -1.4070 -2.4506  0.1796
   53POPC  C218 7056   8.118   3.517   3.873  0.4074  0.0638 -0.2725
   53POPC  H18R 7057   8.020   3.537   3.824  0.4844 -0.5140 -0.6808
   53POPC  H18S 7058   8.180   3.485   3.786  0.3728  0.3728 -0.4122
   53POPC  H18T 7059   8.148   3.615   3.915 -1.4897  1.2526 -1.5141
   53POPC   C33 7060   7.100   3.645   5.414 -0.6434 -0.2177 -0.0621
   53POPC   H3X 7061   7.088   3.754   5.394  2.5393  0.0822 -0.8802
   53POPC   H3Y 7062   7.029   3.625   5.497  1.5083  2.1301  2.5552
   53POPC   C34 7063   7.061   3.565   5.288  0.2274  0.0521 -0.1143
   53POPC   H4X 7064   7.080   3.457   5.307 -0.6610  0.2520  2.2723
   53POPC   H4Y 7065   7.132   3.600   5.210 -0.5775  0.5218 -0.6507
   53POPC   C35 7066   6.914   3.571   5.249  0.3856 -0.7430 -1.3765
   53POPC   H5X 7067   6.887   3.678   5.258  0.4930 -0.8527  0.6949
   53POPC   H5Y 7068   6.845   3.511   5.313 -0.3142  0.8077 -0.6206
   53POPC   C36 7069   6.879   3.526   5.098 -0.0972 -1.0194 -1.0671
   53POPC   H6X 7070   6.930   3.600   5.033 -0.1785 -0.8536 -0.9418
   53POPC   H6Y 7071   6.768   3.537   5.103 -0.1067 -1.4034 -0.1944
   53POPC   C37 7072   6.916   3.389   5.064 -0.4918 -0.2543 -0.7040
   53POPC   H7X 7073   6.891   3.321   5.148  2.6738  0.2013  0.7494
   53POPC   H7Y 7074   7.026   3.382   5.047  0.4679  2.0508  3.3526
   53POPC   C38 7075   6.833   3.331   4.947 -0.3849  0.4435 -0.1624
   53POPC   H8X 7076   6.851   3.391   4.855 -0.5073 -0.4066 -0.7465
   53POPC   H8Y 7077   6.724   3.325   4.968 -0.1642 -2.8302  0.5624
   53POPC   C39 7078   6.867   3.183   4.925 -0.1155  0.2182  0.0520
   53POPC   H9X 7079   6.887   3.140   5.025 -0.1092 -0.5389 -0.2739
   53POPC   H9Y 7080   6.965   3.182   4.872  1.1478 -1.2548  2.2356
   53POPC  C310 7081   6.761   3.087   4.855 -0.3870  0.1559  0.1250
   53POPC  H10X 7082   6.750   3.104   4.746  1.1497 -0.2326 -0.1136
   53POPC  H10Y 7083   6.665   3.105   4.908  0.4191 -0.7360  2.0161
   53POPC  C311 7084   6.788   2.936   4.875  0.4176  0.1550 -0.0293
   53POPC  H11X 7085   6.785   2.924   4.986 -1.8790  0.6006  0.0064
   53POPC  H11Y 7086   6.891   2.922   4.834  0.6505 -0.0163  0.5948
   53POPC  C312 7087   6.689   2.841   4.811  0.2954 -0.5558 -0.2983
   53POPC  H12X 7088   6.677   2.874   4.706 -0.2135  2.3799  0.5943
   53POPC  H12Y 7089   6.585   2.855   4.846  0.2156 -2.3809  0.3374
   53POPC  C313 7090   6.721   2.690   4.829  0.1060  0.5336  1.5081
   53POPC  H13X 7091   6.731   2.656   4.934  0.6593  0.8447  1.5612
   53POPC  H13Y 7092   6.819   2.671   4.779 -0.8831 -0.2655 -0.2116
   53POPC  C314 7093   6.621   2.592   4.762 -0.3205  0.3530 -0.3684
   53POPC  H14X 7094   6.524   2.648   4.761 -0.7132 -0.3140 -0.0194
   53POPC  H14Y 7095   6.622   2.502   4.827 -1.5267  2.2124  2.3826
   53POPC  C315 7096   6.643   2.566   4.610 -0.5114 -0.8163  0.6807
   53POPC  H15X 7097   6.754   2.560   4.599 -0.2914  1.6357  1.1103
   53POPC  H15Y 7098   6.609   2.642   4.536  0.4513 -0.1648  0.8969
   53POPC  C316 7099   6.593   2.430   4.565 -0.6709  0.3878  0.7987
   53POPC  H16X 7100   6.646   2.405   4.471  0.7759 -1.0054  1.9268
   53POPC  H16Y 7101   6.485   2.413   4.547 -0.3004  0.5550 -1.9160
   53POPC  H16Z 7102   6.627   2.354   4.639  3.5326  1.6191  0.3749
   54POPC     N 7103   4.378   5.324   5.446  0.0213  0.5987 -0.2200
   54POPC   C12 7104   4.409   5.319   5.299  0.2550  0.5719 -0.0285
   54POPC  H12A 7105   4.423   5.416   5.254 -1.2520 -0.8264 -3.9507
   54POPC  H12B 7106   4.325   5.278   5.244  0.6514 -1.5374  0.8480
   54POPC   C13 7107   4.230   5.349   5.476 -0.4027  0.4000  0.3433
   54POPC  H13A 7108   4.167   5.268   5.441  0.1674 -0.7059  1.8055
   54POPC  H13B 7109   4.211   5.365   5.581 -0.8525  1.8891  0.0711
   54POPC  H13C 7110   4.198   5.436   5.420  1.2606 -0.7089 -2.5217
   54POPC   C14 7111   4.429   5.210   5.535 -0.2693 -0.1598  0.3359
   54POPC  H14A 7112   4.421   5.247   5.636  1.3504 -0.9286  0.7765
   54POPC  H14B 7113   4.366   5.123   5.524 -2.8922  1.4201  1.7934
   54POPC  H14C 7114   4.535   5.197   5.520 -0.1402  0.2396  0.8558
   54POPC   C15 7115   4.454   5.440   5.505  0.2370 -0.1317  0.2988
   54POPC  H15A 7116   4.555   5.435   5.469 -0.5297 -1.4680 -1.8417
   54POPC  H15B 7117   4.458   5.425   5.612 -0.8295  2.2397  0.7599
   54POPC  H15C 7118   4.414   5.536   5.474  0.4331  0.3355  1.4062
   54POPC   C11 7119   4.544   5.237   5.255  0.3291  0.3362 -0.2422
   54POPC  H11A 7120   4.555   5.236   5.144 -1.4993 -1.5248 -0.4542
   54POPC  H11B 7121   4.519   5.135   5.290  0.4186  0.8662  1.4763
   54POPC     P 7122   4.728   5.413   5.260  0.2858 -0.2322 -0.2298
   54POPC   O13 7123   4.867   5.381   5.226 -0.4662  0.2569  0.0838
   54POPC   O14 7124   4.720   5.529   5.349 -0.2705  0.1887  0.5878
   54POPC   O12 7125   4.658   5.286   5.320 -0.3349 -0.5055 -0.1600
   54POPC   O11 7126   4.638   5.454   5.134  0.0533 -0.0989  0.2266
   54POPC    C1 7127   4.683   5.428   5.002 -0.3090 -0.2096  1.3243
   54POPC    HA 7128   4.603   5.456   4.931  1.1752 -0.7300 -0.6346
   54POPC    HB 7129   4.716   5.322   4.992 -1.5261 -0.5348  0.5722
   54POPC    C2 7130   4.795   5.524   4.949  1.4789  0.7819 -0.7521
   54POPC    HS 7131   4.885   5.489   5.003  0.8648 -0.0927 -0.2749
   54POPC   O21 7132   4.766   5.661   4.988 -0.6846  0.0072  0.4137
   54POPC   C21 7133   4.872   5.742   4.988  0.4233 -0.5550  0.0170
   54POPC   O22 7134   4.987   5.708   4.978 -0.4307 -0.8865 -0.2115
   54POPC   C22 7135   4.837   5.892   5.002  0.1962  0.2713 -0.3783
   54POPC   H2R 7136   4.917   5.945   5.057  1.6946 -1.3016 -0.9318
   54POPC   H2S 7137   4.744   5.912   5.061  1.0747  2.4582  0.3590
   54POPC    C3 7138   4.813   5.502   4.801  0.1930  0.4507  0.0401
   54POPC    HX 7139   4.857   5.401   4.784  0.3642  0.7048 -1.0644
   54POPC    HY 7140   4.893   5.573   4.771 -0.4234  0.8392 -0.7206
   54POPC   O31 7141   4.698   5.532   4.722  0.0322  0.9416  0.2841
   54POPC   C31 7142   4.729   5.543   4.593 -0.6569 -0.2513 -0.1726
   54POPC   O32 7143   4.838   5.528   4.541  0.4833 -0.2712 -0.1789
   54POPC   C32 7144   4.606   5.608   4.531  0.1437 -0.1612  0.3008
   54POPC   H2X 7145   4.621   5.716   4.552 -0.1852  0.6378 -2.9858
   54POPC   H2Y 7146   4.512   5.576   4.581  0.5305  0.6506  1.5824
   54POPC   C23 7147   4.822   5.955   4.864 -0.3118  0.4823  0.0161
   54POPC   H3R 7148   4.756   5.906   4.789  0.6439 -2.0098  0.6955
   54POPC   H3S 7149   4.917   5.932   4.811  0.1324  0.5455  0.7704
   54POPC   C24 7150   4.819   6.111   4.864 -0.7425 -0.5970  0.4492
   54POPC   H4R 7151   4.882   6.147   4.780 -2.0514 -0.2523 -0.4102
   54POPC   H4S 7152   4.862   6.151   4.959 -0.1870 -1.5771  0.6326
   54POPC   C25 7153   4.679   6.170   4.853 -0.2434  0.1162 -0.3829
   54POPC   H5R 7154   4.686   6.273   4.812  0.6203  0.4522  0.5784
   54POPC   H5S 7155   4.621   6.171   4.947 -0.5086 -2.1197 -0.4706
   54POPC   C26 7156   4.600   6.103   4.742 -0.1087  0.4618  0.1645
   54POPC   H6R 7157   4.552   6.013   4.785 -0.2885 -0.5125 -1.9762
   54POPC   H6S 7158   4.662   6.082   4.653  2.6343 -0.7221  2.2248
   54POPC   C27 7159   4.474   6.184   4.699  0.2181  0.4296  0.3614
   54POPC   H7R 7160   4.513   6.271   4.642 -0.9816  1.5686  1.2124
   54POPC   H7S 7161   4.422   6.201   4.796  0.4183 -4.2516  1.5315
   54POPC   C28 7162   4.376   6.103   4.614 -0.1163  0.0523  0.4065
   54POPC   H8R 7163   4.286   6.164   4.592  0.5594  1.0472  0.3498
   54POPC   H8S 7164   4.345   6.022   4.684 -0.0890  0.3964  0.8185
   54POPC   C29 7165   4.429   6.050   4.478 -0.6970 -0.7225  0.4856
   54POPC   H91 7166   4.509   6.106   4.426 -0.8664  0.2525  1.2571
   54POPC  C210 7167   4.385   5.932   4.429  0.1933  0.1285  0.3386
   54POPC  H101 7168   4.427   5.902   4.332  1.9490 -0.3676  1.2143
   54POPC  C211 7169   4.281   5.836   4.486 -0.1407 -0.1217 -0.4752
   54POPC  H11R 7170   4.216   5.874   4.568 -0.4678 -0.0970 -0.7455
   54POPC  H11S 7171   4.340   5.753   4.530  0.8781  0.9189  0.1729
   54POPC  C212 7172   4.202   5.771   4.375 -0.8096 -0.4584  0.2119
   54POPC  H12R 7173   4.271   5.730   4.298  1.4800  2.5905  0.4523
   54POPC  H12S 7174   4.149   5.856   4.327  0.6179 -1.0441 -2.5740
   54POPC  C213 7175   4.104   5.678   4.438  0.5133  0.2090 -0.5188
   54POPC  H13R 7176   4.049   5.728   4.521 -1.0687 -0.2806 -1.2372
   54POPC  H13S 7177   4.162   5.599   4.489 -1.6059 -0.1191  1.6083
   54POPC  C214 7178   4.018   5.600   4.345  0.1479  0.3672  0.1740
   54POPC  H14R 7179   3.959   5.680   4.297  0.4920  0.0099 -0.8596
   54POPC  H14S 7180   3.955   5.535   4.409  2.1125  1.2530  3.2381
   54POPC  C215 7181   4.096   5.510   4.248  0.5118  0.3737 -0.4985
   54POPC  H15R 7182   4.144   5.443   4.323 -1.8173  1.7957  2.4791
   54POPC  H15S 7183   4.167   5.576   4.194  3.5605  0.3435  3.0388
   54POPC  C216 7184   4.019   5.408   4.166 -0.1377 -0.2668 -0.0090
   54POPC  H16R 7185   3.932   5.457   4.116 -0.0036  0.3154  0.3153
   54POPC  H16S 7186   3.971   5.335   4.235  0.2609  0.0164  0.5740
   54POPC  C217 7187   4.095   5.323   4.067 -0.6040 -0.2774  0.0663
   54POPC  H17R 7188   4.171   5.262   4.121 -1.0999 -1.2738 -0.3543
   54POPC  H17S 7189   4.159   5.393   4.007  0.7301 -1.0628  0.5212
   54POPC  C218 7190   4.007   5.228   3.993  0.4963 -0.1740  0.2051
   54POPC  H18R 7191   3.915   5.277   3.955  0.1388 -0.1701  1.0736
   54POPC  H18S 7192   3.966   5.152   4.063 -0.5258  3.2347  3.5737
   54POPC  H18T 7193   4.055   5.175   3.907 -0.7521  0.4902 -0.9313
   54POPC   C33 7194   4.600   5.592   4.379 -0.4598  0.6590  0.4224
   54POPC   H3X 7195   4.697   5.613   4.328 -0.3428  1.8379  1.0983
   54POPC   H3Y 7196   4.533   5.670   4.337 -0.3910  0.1697 -0.6468
   54POPC   C34 7197   4.533   5.456   4.344 -0.4867  0.0131  0.0001
   54POPC   H4X 7198   4.437   5.453   4.400 -0.0113  1.7159  0.9974
   54POPC   H4Y 7199   4.612   5.386   4.380 -0.2224  1.2003  1.8948
   54POPC   C35 7200   4.491   5.424   4.201 -1.1189 -0.3231  0.5103
   54POPC   H5X 7201   4.414   5.493   4.161 -1.3176 -0.9736 -0.2832
   54POPC   H5Y 7202   4.436   5.328   4.194 -0.3240 -0.7625  0.0285
   54POPC   C36 7203   4.612   5.422   4.109 -0.4149  0.1616  0.1423
   54POPC   H6X 7204   4.692   5.360   4.154 -1.1979 -0.1847  1.0985
   54POPC   H6Y 7205   4.659   5.521   4.096  0.9805 -0.6962 -2.0124
   54POPC   C37 7206   4.589   5.358   3.965 -0.1763  0.4867 -0.0650
   54POPC   H7X 7207   4.490   5.386   3.924 -0.3272  0.3836  0.2237
   54POPC   H7Y 7208   4.579   5.249   3.982  0.3060  0.0152 -2.5004
   54POPC   C38 7209   4.706   5.369   3.867 -0.5222 -0.0121 -0.4656
   54POPC   H8X 7210   4.802   5.354   3.922 -0.4492  1.7633 -0.0327
   54POPC   H8Y 7211   4.714   5.471   3.825  1.7803 -0.7584 -2.0560
   54POPC   C39 7212   4.696   5.279   3.748 -0.0912 -0.0803  0.6057
   54POPC   H9X 7213   4.698   5.174   3.784 -1.1014 -1.0234 -1.8985
   54POPC   H9Y 7214   4.785   5.288   3.681  0.0221  0.6830  0.8462
   54POPC  C310 7215   4.576   5.306   3.664 -0.1588 -0.4577  0.6230
   54POPC  H10X 7216   4.577   5.407   3.617  0.2674 -0.8615 -0.2747
   54POPC  H10Y 7217   4.484   5.297   3.725  0.0866  0.7602  1.2208
   54POPC  C311 7218   4.558   5.202   3.553  0.1104 -0.1781  1.0605
   54POPC  H11X 7219   4.450   5.189   3.527  0.6169 -2.6307 -0.1179
   54POPC  H11Y 7220   4.600   5.101   3.575  1.7738  0.3326  0.3480
   54POPC  C312 7221   4.613   5.247   3.415  0.5051  0.3126  0.1942
   54POPC  H12X 7222   4.717   5.283   3.427 -0.6870  3.1926  3.3983
   54POPC  H12Y 7223   4.565   5.337   3.371  0.1885  0.2579  0.4191
   54POPC  C313 7224   4.609   5.132   3.315  0.3651 -0.5027  0.5347
   54POPC  H13X 7225   4.625   5.041   3.377 -1.9613 -0.4269  1.3395
   54POPC  H13Y 7226   4.682   5.144   3.232  1.4413  1.6852  1.7003
   54POPC  C314 7227   4.475   5.114   3.241 -0.1674 -0.1666  0.2090
   54POPC  H14X 7228   4.464   5.172   3.147  0.0905  0.6529  0.6735
   54POPC  H14Y 7229   4.382   5.132   3.299 -1.1634 -2.8885 -0.3982
   54POPC  C315 7230   4.456   4.965   3.205 -0.4926  0.0463  1.0834
   54POPC  H15X 7231   4.549   4.906   3.189  0.0177  1.3293 -1.1335
   54POPC  H15Y 7232   4.418   4.935   3.104  0.1813  0.6137  0.6542
   54POPC  C316 7233   4.378   4.880   3.310 -0.3966 -0.2884 -0.2734
   54POPC  H16X 7234   4.270   4.906   3.303 -0.7244 -1.7393 -0.9521
   54POPC  H16Y 7235   4.396   4.909   3.416 -1.5274  2.4781 -0.7624
   54POPC  H16Z 7236   4.394   4.771   3.298  0.5797 -0.1063 -0.6515
   55POPC     N 7237   7.837   2.876   6.032 -0.2698  0.2186  0.0069
   55POPC   C12 7238   7.735   2.779   6.083  0.3591  0.2362 -0.2974
   55POPC  H12A 7239   7.658   2.832   6.138 -0.1732 -0.0027 -0.8040
   55POPC  H12B 7240   7.781   2.714   6.156  1.2241  0.7676 -0.3557
   55POPC   C13 7241   7.853   2.993   6.123  0.3427 -0.0588  0.0744
   55POPC  H13A 7242   7.902   2.964   6.214 -0.2012 -3.3172 -0.5390
   55POPC  H13B 7243   7.917   3.066   6.075  0.2911  1.1231  1.7003
   55POPC  H13C 7244   7.756   3.032   6.150  1.3321  2.8300 -0.1932
   55POPC   C14 7245   7.964   2.797   6.019  0.3020 -1.1317 -0.1037
   55POPC  H14A 7246   7.966   2.710   5.955 -0.4306 -0.6634 -0.7709
   55POPC  H14B 7247   8.037   2.872   5.995 -1.5482  0.5437 -0.7385
   55POPC  H14C 7248   7.996   2.769   6.119  0.6987 -0.4246 -0.0310
   55POPC   C15 7249   7.805   2.938   5.895 -0.0336 -0.1268  0.4411
   55POPC  H15A 7250   7.730   3.013   5.914  3.1824  2.8940  2.7754
   55POPC  H15B 7251   7.783   2.858   5.827 -2.8931  0.0398  1.0753
   55POPC  H15C 7252   7.882   3.000   5.851  0.0675 -1.9214 -2.0903
   55POPC   C11 7253   7.668   2.697   5.970 -0.1913 -0.1115 -0.2894
   55POPC  H11A 7254   7.620   2.761   5.894 -0.9090 -0.7948 -0.4279
   55POPC  H11B 7255   7.575   2.645   6.002  0.0018 -0.3085 -0.0360
   55POPC     P 7256   7.718   2.494   5.797  0.0367  0.4133 -0.2107
   55POPC   O13 7257   7.660   2.369   5.871  0.0732 -0.0420  0.4953
   55POPC   O14 7258   7.831   2.477   5.702  0.5587 -0.3350 -0.1691
   55POPC   O12 7259   7.756   2.601   5.910  0.4675 -0.9368 -0.5473
   55POPC   O11 7260   7.595   2.562   5.719 -0.1092  0.4851  1.1555
   55POPC    C1 7261   7.600   2.671   5.629 -0.3634 -0.2187 -0.8976
   55POPC    HA 7262   7.700   2.720   5.632 -0.3311 -0.2129 -1.7387
   55POPC    HB 7263   7.530   2.745   5.671  0.0476  0.4736 -1.4178
   55POPC    C2 7264   7.552   2.642   5.481 -1.2717 -0.1388  0.0191
   55POPC    HS 7265   7.560   2.736   5.423  1.3984  0.9934  2.0330
   55POPC   O21 7266   7.426   2.587   5.468 -0.4031 -0.3658 -0.2736
   55POPC   C21 7267   7.326   2.666   5.505  0.0532  0.3971 -0.6109
   55POPC   O22 7268   7.338   2.786   5.527  0.3558 -0.2673  0.0389
   55POPC   C22 7269   7.192   2.595   5.503 -0.9279 -0.0814 -0.7836
   55POPC   H2R 7270   7.149   2.617   5.603  1.0276  2.2163 -0.3572
   55POPC   H2S 7271   7.205   2.486   5.486 -2.4052 -0.5504  0.8504
   55POPC    C3 7272   7.650   2.546   5.419  0.2815  0.4252 -0.1470
   55POPC    HX 7273   7.654   2.447   5.469  0.6469  0.8721  0.7101
   55POPC    HY 7274   7.755   2.581   5.427 -0.0458  1.0195  2.2314
   55POPC   O31 7275   7.625   2.528   5.279 -0.5897 -0.3455  0.6813
   55POPC   C31 7276   7.556   2.421   5.246  0.0561  0.5983  0.0235
   55POPC   O32 7277   7.530   2.329   5.324 -0.0401 -0.1801  0.1874
   55POPC   C32 7278   7.537   2.417   5.090  0.3556  0.1966  0.2396
   55POPC   H2X 7279   7.551   2.518   5.045 -2.0389  0.8070  0.7252
   55POPC   H2Y 7280   7.430   2.395   5.068  0.9476 -0.0798 -2.8590
   55POPC   C23 7281   7.092   2.665   5.401  0.5555 -0.8261 -0.5558
   55POPC   H3R 7282   7.081   2.775   5.409 -3.2369 -1.0315 -0.7879
   55POPC   H3S 7283   6.990   2.620   5.401  0.2670 -0.2292 -1.6770
   55POPC   C24 7284   7.138   2.640   5.255  0.1856  0.0275 -0.4286
   55POPC   H4R 7285   7.241   2.674   5.228  0.5210 -1.6308 -1.3899
   55POPC   H4S 7286   7.057   2.686   5.194 -0.4289 -0.9355 -0.3584
   55POPC   C25 7287   7.129   2.489   5.210  0.1738  0.3039  0.4051
   55POPC   H5R 7288   7.051   2.438   5.271  0.9380 -2.9996 -1.1354
   55POPC   H5S 7289   7.224   2.445   5.247 -0.0517 -2.3132 -1.8142
   55POPC   C26 7290   7.102   2.463   5.060 -0.4361 -0.2545  0.5539
   55POPC   H6R 7291   7.154   2.543   5.002  0.5662 -0.0091  1.7532
   55POPC   H6S 7292   6.991   2.464   5.055 -0.4211 -1.0072 -2.8174
   55POPC   C27 7293   7.144   2.319   5.028 -0.4333  0.0151  0.9835
   55POPC   H7R 7294   7.077   2.237   5.062  0.9587 -2.1183 -1.0773
   55POPC   H7S 7295   7.244   2.299   5.072 -0.5702 -2.0519  0.4721
   55POPC   C28 7296   7.160   2.297   4.882  0.2404 -0.2542 -0.5351
   55POPC   H8R 7297   7.218   2.203   4.868  0.6111  0.0227 -0.9082
   55POPC   H8S 7298   7.226   2.376   4.839 -0.5741  0.7669  0.0299
   55POPC   C29 7299   7.028   2.299   4.800 -0.0636 -0.3382 -1.0457
   55POPC   H91 7300   6.954   2.373   4.833  0.2111 -0.7732  0.6413
   55POPC  C210 7301   7.001   2.229   4.687  0.0745 -0.4735  0.2132
   55POPC  H101 7302   6.902   2.244   4.641  0.2990  2.1443  0.4679
   55POPC  C211 7303   7.095   2.126   4.631  0.7268  0.1261  0.4960
   55POPC  H11R 7304   7.192   2.127   4.685  0.8424  1.0155  0.2748
   55POPC  H11S 7305   7.111   2.150   4.523  1.2584  0.5907  0.6744
   55POPC  C212 7306   7.054   1.978   4.638  0.2503 -0.1539 -0.3678
   55POPC  H12R 7307   7.008   1.969   4.738  0.0962  3.7888  0.0626
   55POPC  H12S 7308   7.142   1.911   4.627  1.9218  0.9834  4.1518
   55POPC  C213 7309   6.963   1.931   4.528 -0.3402 -0.0159 -0.6357
   55POPC  H13R 7310   6.999   1.944   4.424 -1.6234  0.6781 -1.0230
   55POPC  H13S 7311   6.869   1.991   4.530  0.6909  1.6710 -0.9035
   55POPC  C214 7312   6.913   1.793   4.564 -0.6930 -0.4227 -0.1168
   55POPC  H14R 7313   6.851   1.802   4.656  0.8077 -0.7704  0.9647
   55POPC  H14S 7314   7.004   1.732   4.584 -0.8191 -0.1264  1.5812
   55POPC  C215 7315   6.817   1.746   4.450  0.1581  0.4774 -0.5301
   55POPC  H15R 7316   6.879   1.756   4.359  0.0290  0.9614 -0.5680
   55POPC  H15S 7317   6.725   1.809   4.447  1.3452  2.2739 -0.5873
   55POPC  C216 7318   6.781   1.594   4.476  0.3562  0.4375 -0.6053
   55POPC  H16R 7319   6.871   1.530   4.494 -0.9430 -0.9844  1.2111
   55POPC  H16S 7320   6.730   1.555   4.385  3.0669 -0.0188 -2.0554
   55POPC  C217 7321   6.672   1.580   4.585 -0.5429 -0.1469 -0.9306
   55POPC  H17R 7322   6.582   1.639   4.558 -1.1743 -1.6029 -2.1138
   55POPC  H17S 7323   6.709   1.619   4.682 -3.7412  1.2262 -0.1207
   55POPC  C218 7324   6.624   1.431   4.586 -0.5703  0.1096 -0.7534
   55POPC  H18R 7325   6.557   1.422   4.674  0.5924 -1.5880  0.0173
   55POPC  H18S 7326   6.709   1.361   4.604 -2.5275 -2.2568 -0.1707
   55POPC  H18T 7327   6.568   1.410   4.493  1.0419  3.4399 -2.6629
   55POPC   C33 7328   7.622   2.317   5.013 -0.3235 -0.6591  0.2289
   55POPC   H3X 7329   7.635   2.227   5.077  2.6852 -0.5400 -0.0594
   55POPC   H3Y 7330   7.724   2.361   5.012 -1.5125  2.3272 -0.0462
   55POPC   C34 7331   7.561   2.266   4.881 -0.2936  0.4876  0.2059
   55POPC   H4X 7332   7.464   2.216   4.900 -0.2798 -0.2738 -1.5301
   55POPC   H4Y 7333   7.618   2.187   4.828  0.0340  0.1261  1.0809
   55POPC   C35 7334   7.530   2.386   4.795  0.8381 -0.7537 -0.1727
   55POPC   H5X 7335   7.620   2.446   4.771  1.7566 -2.2512 -0.6518
   55POPC   H5Y 7336   7.462   2.452   4.853 -1.3626 -3.7442  0.9170
   55POPC   C36 7337   7.464   2.347   4.661  0.3834 -0.6888  0.6068
   55POPC   H6X 7338   7.413   2.432   4.613 -0.0143  0.4748  2.9522
   55POPC   H6Y 7339   7.377   2.284   4.690 -1.7264  0.8942 -1.9039
   55POPC   C37 7340   7.569   2.285   4.563 -0.0241 -0.8670 -0.9841
   55POPC   H7X 7341   7.605   2.187   4.599  0.7081 -0.0499  0.6341
   55POPC   H7Y 7342   7.654   2.357   4.557 -1.0249  0.3750 -0.7503
   55POPC   C38 7343   7.518   2.247   4.429  0.0008  0.2288  0.0838
   55POPC   H8X 7344   7.442   2.166   4.428  0.8110 -0.5514 -0.5264
   55POPC   H8Y 7345   7.601   2.220   4.360  0.2609 -1.2199  0.9065
   55POPC   C39 7346   7.454   2.369   4.366  0.9951 -0.0889  0.6442
   55POPC   H9X 7347   7.523   2.455   4.381  0.7002  0.4392 -0.8476
   55POPC   H9Y 7348   7.357   2.392   4.417 -0.8422 -0.1870 -2.5263
   55POPC  C310 7349   7.420   2.349   4.214 -0.2116  0.0745 -0.7612
   55POPC  H10X 7350   7.364   2.253   4.211  1.1988 -0.8715  1.2470
   55POPC  H10Y 7351   7.512   2.330   4.155  0.7637  1.8826  0.0831
   55POPC  C311 7352   7.357   2.471   4.150 -0.0658 -0.5073 -0.9174
   55POPC  H11X 7353   7.422   2.512   4.069  0.1203 -0.5627 -0.7963
   55POPC  H11Y 7354   7.359   2.556   4.221  0.8259 -0.9906 -0.3486
   55POPC  C312 7355   7.215   2.451   4.108 -0.4564 -0.0608 -0.3866
   55POPC  H12X 7356   7.221   2.365   4.037  0.8524  0.8409 -1.4096
   55POPC  H12Y 7357   7.172   2.538   4.055 -2.0266  0.0864  1.0561
   55POPC  C313 7358   7.119   2.411   4.231  0.4184 -0.5995  0.9238
   55POPC  H13X 7359   7.112   2.503   4.292 -2.6131 -0.3728  0.4070
   55POPC  H13Y 7360   7.160   2.321   4.282  0.3696 -1.4294 -0.4543
   55POPC  C314 7361   6.980   2.381   4.185 -0.0013 -0.2322 -0.2365
   55POPC  H14X 7362   6.994   2.315   4.097 -1.6821 -3.0108  1.4335
   55POPC  H14Y 7363   6.917   2.464   4.147 -0.4297 -1.3791 -2.1387
   55POPC  C315 7364   6.913   2.284   4.283 -1.2731 -0.2123  0.3190
   55POPC  H15X 7365   6.888   2.333   4.379  1.0651 -0.3093  1.0389
   55POPC  H15Y 7366   6.988   2.212   4.320 -1.4867 -0.3151  0.5505
   55POPC  C316 7367   6.794   2.199   4.239  0.3020  0.9036 -0.0142
   55POPC  H16X 7368   6.817   2.132   4.153 -0.8486  2.5000 -1.6538
   55POPC  H16Y 7369   6.709   2.267   4.218 -1.0196 -0.9118 -0.8300
   55POPC  H16Z 7370   6.753   2.142   4.325  0.2556  1.1900  0.1550
   56POPC     N 7371   7.881   0.223   5.564  1.1914  0.2510  0.0418
   56POPC   C12 7372   7.808   0.301   5.453  0.0788  0.1884  0.0742
   56POPC  H12A 7373   7.848   0.276   5.355 -3.3307  1.4994 -1.8238
   56POPC  H12B 7374   7.838   0.402   5.477  2.8507 -0.2999 -0.9409
   56POPC   C13 7375   8.019   0.245   5.563  0.0441 -0.5367 -0.1849
   56POPC  H13A 7376   8.072   0.191   5.640  0.8008  0.4447  0.0072
   56POPC  H13B 7377   8.070   0.215   5.473  1.2367  2.6255 -0.7119
   56POPC  H13C 7378   8.032   0.352   5.578 -1.5539 -0.4239  0.5547
   56POPC   C14 7379   7.815   0.264   5.695 -0.2626 -0.6448  0.1929
   56POPC  H14A 7380   7.847   0.358   5.738 -3.1059 -0.4215  2.0809
   56POPC  H14B 7381   7.707   0.271   5.695 -0.4116 -2.0824 -1.9287
   56POPC  H14C 7382   7.846   0.193   5.770  0.3190  1.2149  1.8136
   56POPC   C15 7383   7.838   0.080   5.544 -0.1997  0.4380  0.2144
   56POPC  H15A 7384   7.845   0.063   5.437  0.6798 -1.1468  0.4941
   56POPC  H15B 7385   7.735   0.061   5.569 -1.0224 -1.8154 -3.8762
   56POPC  H15C 7386   7.899   0.005   5.592  0.0610  0.7813  0.4250
   56POPC   C11 7387   7.659   0.277   5.440 -0.3240 -0.2406 -0.0389
   56POPC  H11A 7388   7.612   0.282   5.540  1.7874 -0.1364  0.9823
   56POPC  H11B 7389   7.635   0.182   5.387 -0.4646  0.8329 -2.0212
   56POPC     P 7390   7.620   0.539   5.445  0.4231 -0.1298  0.3192
   56POPC   O13 7391   7.755   0.589   5.436 -0.2464 -0.5834  0.0797
   56POPC   O14 7392   7.561   0.519   5.579 -0.6031 -0.5190  0.0867
   56POPC   O12 7393   7.601   0.395   5.375  0.0349 -0.4603  0.5153
   56POPC   O11 7394   7.517   0.635   5.352 -0.0802  0.1516 -0.4012
   56POPC    C1 7395   7.492   0.578   5.224 -0.1141 -0.3344  0.0795
   56POPC    HA 7396   7.428   0.488   5.241  0.9753 -1.0584  0.4545
   56POPC    HB 7397   7.585   0.555   5.167 -0.5791 -0.0810 -0.8080
   56POPC    C2 7398   7.414   0.674   5.127  0.0401  0.5557  0.0990
   56POPC    HS 7399   7.315   0.692   5.173  0.5477  4.6022 -0.0883
   56POPC   O21 7400   7.410   0.606   4.993 -0.1569 -0.0872  0.1667
   56POPC   C21 7401   7.326   0.503   4.988  0.3460 -0.1783 -0.5312
   56POPC   O22 7402   7.253   0.460   5.077 -0.8665 -1.1158 -0.0345
   56POPC   C22 7403   7.330   0.441   4.842  0.6971  0.6177  0.2476
   56POPC   H2R 7404   7.437   0.413   4.829  0.1421 -0.8043 -1.7522
   56POPC   H2S 7405   7.313   0.527   4.774 -0.9382  0.8014  0.8438
   56POPC    C3 7406   7.483   0.810   5.112 -0.1841 -0.7255 -0.6824
   56POPC    HX 7407   7.586   0.786   5.078 -0.0159  0.7619 -1.3397
   56POPC    HY 7408   7.491   0.854   5.214 -3.6555 -3.3227  0.9387
   56POPC   O31 7409   7.432   0.891   5.005  0.3150 -0.2590  0.2021
   56POPC   C31 7410   7.307   0.939   5.032 -0.0579 -0.5345 -0.4153
   56POPC   O32 7411   7.243   0.909   5.130 -0.8244 -0.5364  0.3385
   56POPC   C32 7412   7.268   1.041   4.929 -0.6702  0.7085 -0.3835
   56POPC   H2X 7413   7.355   1.109   4.916  0.7285 -0.2423  2.9644
   56POPC   H2Y 7414   7.184   1.093   4.979 -1.1716  0.1806 -0.6562
   56POPC   C23 7415   7.228   0.328   4.826 -0.3238 -0.2533 -0.0904
   56POPC   H3R 7416   7.129   0.355   4.868 -1.2120  0.3346 -2.4436
   56POPC   H3S 7417   7.264   0.243   4.888 -0.3538 -0.0176  0.2592
   56POPC   C24 7418   7.214   0.289   4.675 -0.0333 -0.5472 -0.1634
   56POPC   H4R 7419   7.313   0.284   4.624  0.3682 -1.5023  0.6737
   56POPC   H4S 7420   7.164   0.374   4.624 -1.7785 -1.4732 -0.0544
   56POPC   C25 7421   7.133   0.164   4.647 -0.0471 -0.2515  0.1431
   56POPC   H5R 7422   7.204   0.089   4.687  3.4467  2.3860 -0.6782
   56POPC   H5S 7423   7.115   0.139   4.540 -0.1947 -0.7823  0.2900
   56POPC   C26 7424   6.997   0.137   4.724 -0.3643  0.3117  0.6555
   56POPC   H6R 7425   7.018   0.135   4.833  0.6893 -0.5648  0.4482
   56POPC   H6S 7426   6.967   0.034   4.697  1.6856 -0.6268  1.7238
   56POPC   C27 7427   6.887   0.231   4.682  0.8788  0.6711 -0.0973
   56POPC   H7R 7428   6.876   0.215   4.573  0.9216 -3.0558  0.3389
   56POPC   H7S 7429   6.918   0.335   4.707 -0.9509  0.7819  2.0689
   56POPC   C28 7430   6.750   0.177   4.743 -0.2377  0.3111  0.0035
   56POPC   H8R 7431   6.767   0.069   4.721  0.9132 -0.1501  2.7824
   56POPC   H8S 7432   6.671   0.226   4.682 -0.2067  0.3074 -0.0396
   56POPC   C29 7433   6.728   0.192   4.888 -0.3343  0.6613 -0.7023
   56POPC   H91 7434   6.788   0.269   4.939  1.1656 -1.2465  0.5391
   56POPC  C210 7435   6.649   0.110   4.961  0.0080  0.3185  0.3468
   56POPC  H101 7436   6.642   0.117   5.071  2.1126 -2.8143  0.8257
   56POPC  C211 7437   6.555   0.001   4.908 -0.0442 -0.5584 -0.0963
   56POPC  H11R 7438   6.521   0.034   4.807 -0.9257 -1.3585 -0.0701
   56POPC  H11S 7439   6.465  -0.018   4.970 -2.1969  0.3956 -2.7103
   56POPC  C212 7440   6.599  -0.144   4.899 -0.2665  0.8217 -0.2209
   56POPC  H12R 7441   6.644  -0.184   4.992  1.3208  0.3502 -1.1564
   56POPC  H12S 7442   6.689  -0.153   4.835 -1.5635  1.5225 -2.2544
   56POPC  C213 7443   6.484  -0.236   4.843 -0.1188  0.5316 -0.0330
   56POPC  H13R 7444   6.426  -0.169   4.776  0.5213 -0.4245 -1.5783
   56POPC  H13S 7445   6.416  -0.259   4.929 -0.4937 -0.2745 -0.5337
   56POPC  C214 7446   6.540  -0.365   4.791  0.2696  0.3717 -0.5415
   56POPC  H14R 7447   6.584  -0.405   4.885 -1.7905  1.5303  0.9990
   56POPC  H14S 7448   6.621  -0.355   4.715 -1.2634  2.7089 -1.9976
   56POPC  C215 7449   6.422  -0.453   4.740 -0.0433 -0.0520 -0.3564
   56POPC  H15R 7450   6.330  -0.423   4.794  1.8094  0.7761  2.5462
   56POPC  H15S 7451   6.434  -0.562   4.758 -2.2349 -0.2486  0.2010
   56POPC  C216 7452   6.401  -0.440   4.584 -0.2583 -0.0563 -0.4327
   56POPC  H16R 7453   6.492  -0.466   4.525 -0.0572 -1.7331  0.5444
   56POPC  H16S 7454   6.376  -0.334   4.562  2.6312  1.1133  1.2379
   56POPC  C217 7455   6.285  -0.531   4.543 -0.4077 -0.6144  0.2470
   56POPC  H17R 7456   6.186  -0.498   4.582 -1.0983 -1.7708 -0.4570
   56POPC  H17S 7457   6.297  -0.635   4.579 -0.8998 -0.0961  1.9846
   56POPC  C218 7458   6.281  -0.551   4.388  0.5838 -0.1480  0.0876
   56POPC  H18R 7459   6.242  -0.457   4.342  2.3350  0.9032  0.6665
   56POPC  H18S 7460   6.202  -0.622   4.357  0.1694  0.4632 -0.2931
   56POPC  H18T 7461   6.374  -0.587   4.339  0.1259 -0.6972 -0.3895
   56POPC   C33 7462   7.201   0.976   4.812  0.5780 -0.0780  0.1991
   56POPC   H3X 7463   7.135   1.049   4.759  1.2654  0.1524 -0.3575
   56POPC   H3Y 7464   7.124   0.907   4.853  0.9835  0.3449  1.7257
   56POPC   C34 7465   7.289   0.912   4.714  0.6775 -0.2556  0.3540
   56POPC   H4X 7466   7.348   0.837   4.772 -0.0844 -1.3191 -0.2130
   56POPC   H4Y 7467   7.352   0.993   4.670  0.1825  1.1307  2.0771
   56POPC   C35 7468   7.218   0.835   4.605 -0.6510  0.6801  0.5090
   56POPC   H5X 7469   7.152   0.899   4.542  1.7231  2.8689  0.0928
   56POPC   H5Y 7470   7.163   0.759   4.663  1.5379 -1.2483  0.2199
   56POPC   C36 7471   7.316   0.756   4.514 -0.3946  0.1576  0.9770
   56POPC   H6X 7472   7.378   0.679   4.565 -0.5885 -1.4440 -1.0745
   56POPC   H6Y 7473   7.389   0.823   4.465 -0.4626  0.9124  1.8758
   56POPC   C37 7474   7.236   0.684   4.401  0.0447  0.2152 -0.4228
   56POPC   H7X 7475   7.201   0.769   4.339 -0.3401  1.5811  1.5912
   56POPC   H7Y 7476   7.151   0.621   4.436 -0.8304  0.6053 -1.7664
   56POPC   C38 7477   7.329   0.596   4.315 -0.2388  0.1881 -0.4165
   56POPC   H8X 7478   7.411   0.659   4.275 -0.4923 -0.4950 -2.0915
   56POPC   H8Y 7479   7.271   0.543   4.236  0.8092  0.4094 -1.3506
   56POPC   C39 7480   7.376   0.468   4.399 -0.1657  0.3804  0.6253
   56POPC   H9X 7481   7.280   0.417   4.424 -0.9085  2.1580  1.5979
   56POPC   H9Y 7482   7.425   0.498   4.494  0.9648 -3.0519  1.2628
   56POPC  C310 7483   7.465   0.379   4.304  0.5737  0.2835  0.1169
   56POPC  H10X 7484   7.516   0.453   4.238 -0.5183  1.5867  0.6768
   56POPC  H10Y 7485   7.386   0.327   4.247  1.7529  2.1351 -3.5107
   56POPC  C311 7486   7.544   0.281   4.392  0.5313 -0.1829  0.2795
   56POPC  H11X 7487   7.561   0.183   4.341  0.9242  0.2831 -0.5087
   56POPC  H11Y 7488   7.489   0.263   4.487  2.4809  0.4697  1.5809
   56POPC  C312 7489   7.677   0.331   4.444 -0.1361  0.1327  0.0007
   56POPC  H12X 7490   7.664   0.436   4.479 -1.3117 -0.4088  1.3048
   56POPC  H12Y 7491   7.756   0.329   4.366 -1.4923 -1.7774 -1.4262
   56POPC  C313 7492   7.724   0.255   4.571 -0.3085 -0.6507  0.7918
   56POPC  H13X 7493   7.820   0.306   4.596 -1.1231  1.4903 -0.2245
   56POPC  H13Y 7494   7.747   0.150   4.541 -0.4267 -0.4507 -0.0422
   56POPC  C314 7495   7.645   0.270   4.703 -0.8281 -0.5717 -0.1930
   56POPC  H14X 7496   7.549   0.217   4.687 -0.7624 -1.0792  0.9673
   56POPC  H14Y 7497   7.629   0.379   4.698  1.8471 -0.1050 -0.3643
   56POPC  C315 7498   7.736   0.221   4.820  0.6506  0.4864  0.1862
   56POPC  H15X 7499   7.820   0.294   4.821 -1.5243  3.1571 -0.2726
   56POPC  H15Y 7500   7.781   0.121   4.802 -0.2412 -0.3595  2.3582
   56POPC  C316 7501   7.660   0.238   4.950 -0.0389  0.6684  0.3511
   56POPC  H16X 7502   7.577   0.164   4.940 -0.3996  1.2702 -1.5230
   56POPC  H16Y 7503   7.612   0.338   4.959  2.2585  1.7320  1.3844
   56POPC  H16Z 7504   7.716   0.202   5.038  1.0790 -1.1933 -1.0462
   57POPC     N 7505   2.632   2.469   6.234 -0.0319  0.0423 -0.8232
   57POPC   C12 7506   2.725   2.437   6.121  0.1232  0.0102  0.3482
   57POPC  H12A 7507   2.786   2.350   6.142 -0.9306 -0.9050 -0.2338
   57POPC  H12B 7508   2.791   2.522   6.113 -1.4617  1.1834 -1.0411
   57POPC   C13 7509   2.544   2.584   6.201  0.6619  0.2873  0.7216
   57POPC  H13A 7510   2.601   2.673   6.181 -0.6689  1.0121 -0.0500
   57POPC  H13B 7511   2.489   2.556   6.112 -1.5850 -0.1181  2.1309
   57POPC  H13C 7512   2.475   2.602   6.283  2.7613  0.9524  2.4173
   57POPC   C14 7513   2.547   2.352   6.263  0.6167  0.4348  0.7048
   57POPC  H14A 7514   2.479   2.373   6.344 -0.7312  0.2221 -0.3319
   57POPC  H14B 7515   2.488   2.332   6.175  0.5638  0.6049  0.7019
   57POPC  H14C 7516   2.605   2.264   6.288 -2.8730 -2.2644  0.0519
   57POPC   C15 7517   2.715   2.494   6.359  0.2998 -0.0677 -0.8011
   57POPC  H15A 7518   2.782   2.411   6.379  1.2780  0.7701 -0.5413
   57POPC  H15B 7519   2.647   2.497   6.443 -1.3826 -0.0661 -2.1038
   57POPC  H15C 7520   2.766   2.589   6.358 -1.2032  0.8726  1.7316
   57POPC   C11 7521   2.654   2.419   5.986 -0.3278  0.6832 -0.6484
   57POPC  H11A 7522   2.734   2.400   5.912 -0.7770 -0.1207 -0.9410
   57POPC  H11B 7523   2.603   2.513   5.957 -0.7211 -0.1918 -3.0388
   57POPC     P 7524   2.602   2.161   5.973 -0.1698  0.1713  0.0759
   57POPC   O13 7525   2.476   2.085   5.960  0.8842  0.3502  0.4380
   57POPC   O14 7526   2.708   2.123   6.074 -0.1452  1.0199  0.4603
   57POPC   O12 7527   2.557   2.315   5.989  0.6408 -0.1947  0.0558
   57POPC   O11 7528   2.669   2.162   5.832  0.2560  0.3544 -0.1914
   57POPC    C1 7529   2.616   2.110   5.715  0.2120  0.0826  0.2467
   57POPC    HA 7530   2.512   2.075   5.733  0.6788 -0.9076  1.1388
   57POPC    HB 7531   2.667   2.020   5.674  0.3898 -0.5646  1.8381
   57POPC    C2 7532   2.606   2.222   5.601 -0.5232  0.2038 -0.1802
   57POPC    HS 7533   2.566   2.166   5.513 -0.8840  0.9404 -0.4941
   57POPC   O21 7534   2.737   2.272   5.565 -0.0551 -0.6739  0.2654
   57POPC   C21 7535   2.819   2.181   5.513 -0.2276 -0.1036  0.0933
   57POPC   O22 7536   2.781   2.074   5.469 -0.0970 -0.0553  0.0735
   57POPC   C22 7537   2.960   2.232   5.494  0.0547  0.3795 -0.3370
   57POPC   H2R 7538   3.025   2.200   5.578 -0.1000 -2.9561 -1.3533
   57POPC   H2S 7539   2.951   2.343   5.498 -0.2198  0.3230  2.0831
   57POPC    C3 7540   2.505   2.328   5.635  0.2133  0.1490 -0.5440
   57POPC    HX 7541   2.562   2.401   5.697  2.8686 -0.5211 -2.0319
   57POPC    HY 7542   2.422   2.291   5.698 -0.3504  1.9042 -0.1777
   57POPC   O31 7543   2.446   2.387   5.520 -0.4702  0.0526 -0.5900
   57POPC   C31 7544   2.349   2.320   5.452 -0.6617 -0.1367  0.1339
   57POPC   O32 7545   2.321   2.204   5.476 -0.2564  0.1474  0.0089
   57POPC   C32 7546   2.285   2.398   5.343 -0.2565 -0.4395 -0.8300
   57POPC   H2X 7547   2.183   2.420   5.380 -0.4002 -1.4607 -0.5932
   57POPC   H2Y 7548   2.283   2.331   5.255 -1.3507  2.0304 -2.8018
   57POPC   C23 7549   3.017   2.192   5.358  0.1219  0.1325 -0.9136
   57POPC   H3R 7550   2.960   2.231   5.271 -1.8134  2.3035  1.1860
   57POPC   H3S 7551   3.034   2.084   5.337  2.8475  0.4446 -0.6464
   57POPC   C24 7552   3.164   2.244   5.334  0.3440 -0.0642  0.5834
   57POPC   H4R 7553   3.194   2.215   5.230 -3.4325  3.0376 -1.6297
   57POPC   H4S 7554   3.233   2.198   5.408  2.4951 -0.2698 -1.4264
   57POPC   C25 7555   3.175   2.401   5.340 -0.1676  0.6997 -0.4424
   57POPC   H5R 7556   3.280   2.423   5.367 -0.0741  0.1091 -0.3051
   57POPC   H5S 7557   3.108   2.444   5.417  0.9784 -1.6606  2.0401
   57POPC   C26 7558   3.141   2.469   5.207  0.5136  0.2227  0.1534
   57POPC   H6R 7559   3.033   2.455   5.185  0.6278 -1.0086  0.2950
   57POPC   H6S 7560   3.197   2.411   5.131  1.5907 -0.2531  1.2751
   57POPC   C27 7561   3.175   2.617   5.210 -0.5789  0.1451 -0.7258
   57POPC   H7R 7562   3.278   2.644   5.244  0.4149 -3.3142 -0.6628
   57POPC   H7S 7563   3.116   2.655   5.296 -0.9101  1.6485 -1.5803
   57POPC   C28 7564   3.122   2.686   5.079 -0.2737 -0.3471 -0.5913
   57POPC   H8R 7565   3.035   2.626   5.045  1.3023 -2.7604 -0.6169
   57POPC   H8S 7566   3.202   2.668   5.004  0.1147 -0.8250 -0.0692
   57POPC   C29 7567   3.079   2.832   5.096  0.6457  0.6616  0.4577
   57POPC   H91 7568   3.037   2.853   5.196  1.4392  0.6415  0.7989
   57POPC  C210 7569   3.100   2.922   4.999 -0.0869  0.3571 -0.6767
   57POPC  H101 7570   3.086   3.029   5.020 -1.8128  0.3443 -1.5732
   57POPC  C211 7571   3.171   2.901   4.865  0.3636 -0.1756 -0.2715
   57POPC  H11R 7572   3.141   2.805   4.818 -1.3096 -1.1092  2.4809
   57POPC  H11S 7573   3.280   2.882   4.869  1.3989  3.8645 -3.2576
   57POPC  C212 7574   3.145   3.006   4.755 -0.0957 -0.7162 -0.5176
   57POPC  H12R 7575   3.231   2.993   4.686  2.8609  0.5440  2.6331
   57POPC  H12S 7576   3.163   3.107   4.797  2.0078 -1.3547  0.2734
   57POPC  C213 7577   3.004   2.997   4.691 -0.4012  0.2439 -0.0139
   57POPC  H13R 7578   2.932   3.004   4.775  1.7743 -0.7416  2.0456
   57POPC  H13S 7579   2.998   2.897   4.645 -0.6072  0.4562 -0.4552
   57POPC  C214 7580   2.989   3.104   4.583  0.9263 -0.1602  0.0831
   57POPC  H14R 7581   3.049   3.091   4.490 -0.8773  1.8991 -1.5006
   57POPC  H14S 7582   3.016   3.205   4.621  2.5493 -0.6766  0.3411
   57POPC  C215 7583   2.841   3.116   4.529 -0.6241 -0.0890  0.3924
   57POPC  H15R 7584   2.830   3.213   4.476 -3.6646  0.2775  1.4778
   57POPC  H15S 7585   2.778   3.123   4.620 -1.7589  2.2564 -0.4867
   57POPC  C216 7586   2.814   2.996   4.431 -0.0382  0.1074  0.2466
   57POPC  H16R 7587   2.804   2.902   4.490  1.0039 -1.1061 -1.4105
   57POPC  H16S 7588   2.903   2.993   4.364  0.5368 -1.3208  1.0235
   57POPC  C217 7589   2.687   3.007   4.347 -0.1129 -0.4477 -0.9981
   57POPC  H17R 7590   2.683   3.112   4.310  0.3372 -0.5579 -1.3818
   57POPC  H17S 7591   2.602   2.990   4.416  1.0027 -1.2833  0.2121
   57POPC  C218 7592   2.682   2.911   4.225 -0.3793  0.1628  0.0511
   57POPC  H18R 7593   2.720   2.808   4.245  1.2688  0.3571 -1.8528
   57POPC  H18S 7594   2.729   2.945   4.131 -0.4338  2.5579  0.8319
   57POPC  H18T 7595   2.572   2.901   4.212 -0.5701  2.0892 -0.1534
   57POPC   C33 7596   2.347   2.541   5.301 -0.5093 -0.3064 -0.5370
   57POPC   H3X 7597   2.458   2.539   5.289 -0.4496  2.0278 -0.8375
   57POPC   H3Y 7598   2.338   2.618   5.380  1.5020 -1.1471  0.5900
   57POPC   C34 7599   2.273   2.604   5.186 -0.4665  0.3708 -0.1580
   57POPC   H4X 7600   2.177   2.640   5.228 -1.2078 -0.3344 -1.1992
   57POPC   H4Y 7601   2.257   2.524   5.111 -0.5341  1.2341 -1.1036
   57POPC   C35 7602   2.358   2.719   5.121  0.4192  0.3005 -0.1640
   57POPC   H5X 7603   2.319   2.719   5.017 -0.4562 -2.7705  0.0759
   57POPC   H5Y 7604   2.463   2.685   5.122 -0.1912 -1.6660  0.0761
   57POPC   C36 7605   2.325   2.860   5.180 -1.1234 -0.6326 -0.0917
   57POPC   H6X 7606   2.396   2.932   5.134 -1.7618  0.5869  0.7525
   57POPC   H6Y 7607   2.338   2.867   5.290 -0.5378 -0.4084 -0.1709
   57POPC   C37 7608   2.190   2.926   5.137  0.3180  0.0834  0.0626
   57POPC   H7X 7609   2.109   2.855   5.165 -0.6355  1.3118  0.4965
   57POPC   H7Y 7610   2.195   2.931   5.026 -0.7966  0.9689  0.0367
   57POPC   C38 7611   2.166   3.067   5.195  0.6727  0.0056  0.2901
   57POPC   H8X 7612   2.254   3.126   5.163  0.4461 -0.2512 -0.8269
   57POPC   H8Y 7613   2.163   3.070   5.306  0.9741 -0.3664  0.3100
   57POPC   C39 7614   2.044   3.139   5.146  0.2903 -0.7347  0.6266
   57POPC   H9X 7615   1.954   3.074   5.159 -0.4875  0.2566  0.2843
   57POPC   H9Y 7616   2.054   3.150   5.036 -0.6898  1.3966  0.7143
   57POPC  C310 7617   2.035   3.279   5.210 -0.3922  0.0079  0.3056
   57POPC  H10X 7618   2.130   3.331   5.188 -1.2274  1.5473  0.2516
   57POPC  H10Y 7619   2.022   3.263   5.319 -2.0506 -4.0542 -0.3037
   57POPC  C311 7620   1.927   3.371   5.148  0.6139  0.4727 -0.1420
   57POPC  H11X 7621   1.834   3.310   5.150  0.7828  0.1933  2.4114
   57POPC  H11Y 7622   1.966   3.388   5.045  2.9996 -1.5703  0.3329
   57POPC  C312 7623   1.898   3.497   5.225 -0.7303  0.1669  0.0580
   57POPC  H12X 7624   1.819   3.565   5.186 -0.7325  1.7540  2.5990
   57POPC  H12Y 7625   1.989   3.561   5.222 -0.5443 -0.0548  0.8442
   57POPC  C313 7626   1.851   3.471   5.372 -0.3065 -0.0283  0.1849
   57POPC  H13X 7627   1.924   3.415   5.434  0.0736  2.5155  2.2104
   57POPC  H13Y 7628   1.757   3.412   5.359 -0.2002  0.0541 -1.1802
   57POPC  C314 7629   1.811   3.597   5.445  0.2695 -0.6056 -0.1832
   57POPC  H14X 7630   1.763   3.675   5.382 -0.2820 -0.9085 -0.1380
   57POPC  H14Y 7631   1.906   3.643   5.482 -0.9473  0.0560  2.3197
   57POPC  C315 7632   1.733   3.552   5.566  0.6078 -0.3970 -0.2441
   57POPC  H15X 7633   1.630   3.519   5.542  0.7395 -0.1187 -1.2505
   57POPC  H15Y 7634   1.714   3.645   5.622 -1.7827 -0.4188 -0.9130
   57POPC  C316 7635   1.787   3.443   5.658 -0.4534  0.1670  0.7199
   57POPC  H16X 7636   1.896   3.463   5.662 -0.4935  0.2803  1.3173
   57POPC  H16Y 7637   1.765   3.343   5.616 -1.3123  1.0862 -1.1480
   57POPC  H16Z 7638   1.736   3.442   5.756 -1.5490  1.0765  0.1818
   58POPC     N 7639   2.443   1.514   6.011 -0.9351 -0.1203 -1.4695
   58POPC   C12 7640   2.425   1.537   5.862  0.3306  0.3021 -0.9863
   58POPC  H12A 7641   2.401   1.640   5.838  0.0144  0.5499  0.3360
   58POPC  H12B 7642   2.346   1.477   5.821  0.9602 -0.6865 -0.7795
   58POPC   C13 7643   2.489   1.375   6.050  0.1950 -0.2411 -0.2347
   58POPC  H13A 7644   2.474   1.360   6.156  0.0797  2.3508  0.1601
   58POPC  H13B 7645   2.434   1.297   5.999  0.9893 -3.1055  2.8920
   58POPC  H13C 7646   2.595   1.364   6.036 -0.0208 -2.8509 -0.4373
   58POPC   C14 7647   2.541   1.607   6.078  0.1023 -0.6151 -0.0062
   58POPC  H14A 7648   2.498   1.706   6.091  0.0820 -0.5620 -0.4870
   58POPC  H14B 7649   2.577   1.571   6.174  1.5441 -0.3092 -0.4169
   58POPC  H14C 7650   2.630   1.614   6.018  0.9703  0.8393  1.3395
   58POPC   C15 7651   2.309   1.538   6.079  0.9614  0.0128  0.0871
   58POPC  H15A 7652   2.233   1.477   6.033  2.4035 -1.0312 -0.9987
   58POPC  H15B 7653   2.275   1.640   6.074 -0.1620 -0.2109  2.0753
   58POPC  H15C 7654   2.313   1.520   6.185  1.9531 -2.6718 -0.3363
   58POPC   C11 7655   2.552   1.508   5.770 -0.3656 -0.0901 -0.9550
   58POPC  H11A 7656   2.522   1.533   5.666 -0.4471  1.6798 -0.5416
   58POPC  H11B 7657   2.584   1.401   5.767  1.2690  0.3045  0.4235
   58POPC     P 7658   2.664   1.741   5.765 -0.3348  0.3314 -0.0786
   58POPC   O13 7659   2.772   1.809   5.842  0.1985  0.0678 -0.7060
   58POPC   O14 7660   2.527   1.792   5.786 -0.5053  0.5569  0.3636
   58POPC   O12 7661   2.664   1.589   5.812  0.0168 -0.4999  0.0445
   58POPC   O11 7662   2.714   1.733   5.611 -0.4254  0.5006  0.2495
   58POPC    C1 7663   2.860   1.722   5.589  0.3125 -0.1972 -0.2052
   58POPC    HA 7664   2.914   1.692   5.682 -0.5753 -0.3746  0.2627
   58POPC    HB 7665   2.889   1.827   5.569 -0.7289  0.0488 -0.4829
   58POPC    C2 7666   2.902   1.635   5.470 -0.1840 -0.3277 -0.0199
   58POPC    HS 7667   3.012   1.626   5.459 -0.0378 -0.8028  1.6137
   58POPC   O21 7668   2.840   1.691   5.345 -0.6887 -0.3667 -0.0410
   58POPC   C21 7669   2.909   1.798   5.304  0.6412  0.1227 -0.0744
   58POPC   O22 7670   3.021   1.831   5.339 -0.8192  0.0637 -0.9074
   58POPC   C22 7671   2.829   1.870   5.201 -0.1437 -0.0135  0.1053
   58POPC   H2R 7672   2.802   1.968   5.247 -1.6149 -0.2431 -0.2219
   58POPC   H2S 7673   2.736   1.812   5.183 -0.4903  0.6324 -0.2212
   58POPC    C3 7674   2.855   1.489   5.482  0.1444  0.0447  0.6689
   58POPC    HX 7675   2.745   1.491   5.469  0.1060 -2.3394  0.1558
   58POPC    HY 7676   2.885   1.473   5.587 -0.7612  1.7713  1.2262
   58POPC   O31 7677   2.919   1.403   5.387  0.4964 -0.7174 -0.4633
   58POPC   C31 7678   2.915   1.276   5.420  0.1399  0.5353 -0.6403
   58POPC   O32 7679   2.839   1.234   5.511 -0.7820 -0.3229  0.6284
   58POPC   C32 7680   3.000   1.185   5.322 -0.4147 -0.5321 -0.0736
   58POPC   H2X 7681   3.095   1.165   5.376  0.7414  2.3627 -0.8182
   58POPC   H2Y 7682   3.033   1.249   5.238 -0.7995  1.7161  1.3810
   58POPC   C23 7683   2.916   1.917   5.085  0.3118  0.3241  0.9205
   58POPC   H3R 7684   2.930   1.830   5.017 -1.0750  0.4617  0.4334
   58POPC   H3S 7685   3.015   1.951   5.122  0.8302  2.9973 -2.3831
   58POPC   C24 7686   2.851   2.032   5.000 -0.3315  1.0155 -0.0611
   58POPC   H4R 7687   2.811   2.114   5.063 -0.7697  1.2556 -0.6455
   58POPC   H4S 7688   2.771   1.985   4.939 -0.7128 -0.9568  1.8206
   58POPC   C25 7689   2.947   2.088   4.895 -0.0556 -0.1503 -0.6439
   58POPC   H5R 7690   2.892   2.155   4.826  1.4154  0.8660 -0.8517
   58POPC   H5S 7691   2.995   2.009   4.833 -2.0202 -2.2152  0.2659
   58POPC   C26 7692   3.044   2.186   4.965  0.3318  0.2129 -0.5120
   58POPC   H6R 7693   3.137   2.130   4.987  0.2103 -0.7292 -2.2642
   58POPC   H6S 7694   3.002   2.242   5.051  3.7405  1.5657  0.4621
   58POPC   C27 7695   3.097   2.291   4.865  0.1829  0.0010  0.2766
   58POPC   H7R 7696   3.118   2.235   4.772 -1.2754  1.4052 -0.9460
   58POPC   H7S 7697   3.192   2.334   4.903 -1.0017 -0.1817  3.8677
   58POPC   C28 7698   2.987   2.397   4.838 -0.0244 -0.0187 -0.5420
   58POPC   H8R 7699   2.958   2.451   4.930 -0.7916 -1.4586  0.0929
   58POPC   H8S 7700   2.893   2.345   4.807 -1.0715  1.2221  0.4234
   58POPC   C29 7701   3.031   2.499   4.731 -0.1546  0.3803 -0.0226
   58POPC   H91 7702   3.123   2.549   4.766 -0.9180  0.8927  1.3020
   58POPC  C210 7703   2.979   2.529   4.609 -0.2454  0.1715  0.4467
   58POPC  H101 7704   3.023   2.611   4.550  3.1414 -0.4192  1.8872
   58POPC  C211 7705   2.852   2.476   4.563  0.4860 -0.4141 -0.0865
   58POPC  H11R 7706   2.781   2.561   4.562 -1.9745 -2.2678  1.8163
   58POPC  H11S 7707   2.810   2.393   4.625 -0.6514 -0.2011 -0.5364
   58POPC  C212 7708   2.853   2.432   4.416 -0.3045 -0.1016 -0.1901
   58POPC  H12R 7709   2.886   2.514   4.348 -0.1714  1.2926  1.4851
   58POPC  H12S 7710   2.750   2.399   4.390 -0.0843 -0.3616 -0.7354
   58POPC  C213 7711   2.945   2.311   4.387 -0.0828 -0.2292  0.1559
   58POPC  H13R 7712   2.938   2.235   4.468  0.1621  0.5288  0.9064
   58POPC  H13S 7713   3.047   2.356   4.392  1.2156 -3.0060  0.1472
   58POPC  C214 7714   2.921   2.244   4.248  0.4686 -0.3531  0.5884
   58POPC  H14R 7715   2.992   2.161   4.226 -1.8438 -1.6422 -2.8073
   58POPC  H14S 7716   2.927   2.316   4.164 -0.0661 -1.7120 -0.6650
   58POPC  C215 7717   2.782   2.168   4.240  0.1133  0.5911 -0.2059
   58POPC  H15R 7718   2.699   2.220   4.293  0.6954  0.7607  0.5461
   58POPC  H15S 7719   2.793   2.070   4.291 -1.5490  0.7503  0.5186
   58POPC  C216 7720   2.742   2.147   4.089 -1.0960 -0.6170 -0.5654
   58POPC  H16R 7721   2.824   2.101   4.030 -1.5323 -0.9722 -0.8994
   58POPC  H16S 7722   2.732   2.250   4.049  1.4806  0.0521  0.3311
   58POPC  C217 7723   2.605   2.080   4.057  0.1774 -0.1840 -0.2809
   58POPC  H17R 7724   2.573   2.107   3.954 -3.0279  0.1846  0.6876
   58POPC  H17S 7725   2.527   2.123   4.124 -0.9798  3.4582 -3.6084
   58POPC  C218 7726   2.603   1.925   4.071  0.1802  0.4412 -0.6144
   58POPC  H18R 7727   2.582   1.902   4.178  2.0449 -1.3923 -0.5870
   58POPC  H18S 7728   2.698   1.872   4.051  0.6863  1.4207 -0.8631
   58POPC  H18T 7729   2.530   1.887   3.997 -0.2223  1.2032 -0.6210
   58POPC   C33 7730   2.922   1.060   5.274  0.9071  0.4498  0.5141
   58POPC   H3X 7731   2.873   1.015   5.363  0.8135  2.2274  1.4185
   58POPC   H3Y 7732   2.995   0.989   5.230  1.3081  1.1911 -0.0316
   58POPC   C34 7733   2.803   1.111   5.179  0.0632 -0.2403 -0.9268
   58POPC   H4X 7734   2.853   1.156   5.090  1.3404  2.5980  1.0636
   58POPC   H4Y 7735   2.741   1.188   5.230 -0.2118 -0.9800 -0.1364
   58POPC   C35 7736   2.694   1.003   5.139 -1.0987 -0.5158 -0.0671
   58POPC   H5X 7737   2.645   0.969   5.233 -0.8757 -0.2015  0.1674
   58POPC   H5Y 7738   2.746   0.915   5.094  2.4304  0.8569  0.9495
   58POPC   C36 7739   2.584   1.059   5.053 -0.4374  0.2874  0.4140
   58POPC   H6X 7740   2.538   1.155   5.086 -2.7553 -0.9135  0.8581
   58POPC   H6Y 7741   2.509   0.978   5.049 -0.0827 -0.0442  0.4356
   58POPC   C37 7742   2.650   1.072   4.913  0.6472 -0.2388  0.6281
   58POPC   H7X 7743   2.714   0.993   4.869  1.6769  1.2595 -0.7073
   58POPC   H7Y 7744   2.737   1.141   4.912  1.5278 -1.3140 -0.9448
   58POPC   C38 7745   2.546   1.121   4.814 -0.7000 -0.8581  0.8636
   58POPC   H8X 7746   2.479   1.191   4.868 -0.2373  0.4160 -0.1543
   58POPC   H8Y 7747   2.477   1.046   4.768 -1.5990  0.5149 -0.1057
   58POPC   C39 7748   2.605   1.197   4.696  0.0749  0.3987 -0.0053
   58POPC   H9X 7749   2.673   1.128   4.641 -0.4232  0.0124 -0.1494
   58POPC   H9Y 7750   2.673   1.275   4.737  0.6718 -0.8095  1.3819
   58POPC  C310 7751   2.507   1.269   4.591  0.6018 -0.2090 -0.9947
   58POPC  H10X 7752   2.420   1.202   4.576  0.7676 -0.8759  0.8398
   58POPC  H10Y 7753   2.551   1.279   4.489  0.1872  1.5246 -1.0406
   58POPC  C311 7754   2.469   1.407   4.630 -0.4102 -0.2445 -0.6059
   58POPC  H11X 7755   2.422   1.405   4.730 -0.5397 -1.6778 -0.6764
   58POPC  H11Y 7756   2.385   1.430   4.561 -1.8574 -1.4784  0.6694
   58POPC  C312 7757   2.587   1.505   4.622 -0.5256 -0.0212 -0.4781
   58POPC  H12X 7758   2.634   1.485   4.523  0.6467  3.1104 -0.6757
   58POPC  H12Y 7759   2.676   1.487   4.686 -0.8403 -1.4579 -0.4106
   58POPC  C313 7760   2.544   1.654   4.623  0.1802 -0.3013  0.0513
   58POPC  H13X 7761   2.457   1.669   4.556 -1.4963 -0.1458  2.1759
   58POPC  H13Y 7762   2.625   1.727   4.603 -0.6090  0.7251  0.4955
   58POPC  C314 7763   2.484   1.679   4.764  0.3604  0.4879  0.4527
   58POPC  H14X 7764   2.565   1.655   4.836  0.5124  0.9211  0.4295
   58POPC  H14Y 7765   2.398   1.610   4.776 -0.9309  1.8877 -0.3569
   58POPC  C315 7766   2.437   1.818   4.777 -0.3357 -0.7343 -0.3585
   58POPC  H15X 7767   2.341   1.836   4.724 -2.3090  0.9491  3.4065
   58POPC  H15Y 7768   2.509   1.885   4.724 -0.4354 -0.3463 -0.0080
   58POPC  C316 7769   2.420   1.864   4.925 -0.0993  0.6930 -0.2340
   58POPC  H16X 7770   2.335   1.803   4.963  0.4205  0.0798 -0.0428
   58POPC  H16Y 7771   2.409   1.974   4.935  1.3617  0.8087  0.2707
   58POPC  H16Z 7772   2.517   1.840   4.973  0.6365  0.1708 -1.8983
   59POPC     N 7773   7.789   3.652   5.848  0.3019 -0.4288  0.2849
   59POPC   C12 7774   7.641   3.665   5.820  0.1197  0.3714  0.3516
   59POPC  H12A 7775   7.588   3.730   5.888  1.9982  1.2563  1.0289
   59POPC  H12B 7776   7.595   3.568   5.833  1.3164 -0.1785  0.5577
   59POPC   C13 7777   7.845   3.547   5.756  0.5730  0.5201 -0.1237
   59POPC  H13A 7778   7.948   3.519   5.775  1.5043  0.5178 -4.3199
   59POPC  H13B 7779   7.788   3.456   5.750  0.7279  0.2720  1.6683
   59POPC  H13C 7780   7.851   3.581   5.654 -1.5875  0.7665 -0.2193
   59POPC   C14 7781   7.850   3.784   5.812  0.8821  0.0641 -0.3753
   59POPC  H14A 7782   7.957   3.778   5.829  0.8151 -1.3117 -0.3326
   59POPC  H14B 7783   7.829   3.805   5.709 -0.7002 -0.7186 -0.2432
   59POPC  H14C 7784   7.815   3.865   5.874 -1.7062 -1.9184  0.9268
   59POPC   C15 7785   7.817   3.617   5.990  0.0022 -0.0241  0.0623
   59POPC  H15A 7786   7.923   3.608   6.009  0.3551 -1.9815 -2.3705
   59POPC  H15B 7787   7.784   3.517   6.012  0.2762  0.1053  1.1279
   59POPC  H15C 7788   7.772   3.690   6.057 -0.7523  1.8814 -2.3734
   59POPC   C11 7789   7.612   3.709   5.669 -0.4080 -0.1396  0.7035
   59POPC  H11A 7790   7.504   3.687   5.657 -0.2834 -0.7732  0.6798
   59POPC  H11B 7791   7.661   3.648   5.589  1.2998 -0.1199  1.6899
   59POPC     P 7792   7.517   3.935   5.710 -0.6571 -0.4187 -0.1016
   59POPC   O13 7793   7.555   4.077   5.713 -0.2759  0.4868 -0.4740
   59POPC   O14 7794   7.468   3.881   5.843  0.1398 -0.0518  0.3153
   59POPC   O12 7795   7.628   3.851   5.650  0.4804 -0.0165 -0.3325
   59POPC   O11 7796   7.398   3.929   5.612  0.1884 -0.3552 -0.0201
   59POPC    C1 7797   7.419   3.928   5.468  0.6889  0.1646 -0.6274
   59POPC    HA 7798   7.429   3.821   5.440 -0.0233 -0.3050  0.8043
   59POPC    HB 7799   7.511   3.985   5.441  1.1750 -0.2353  0.1360
   59POPC    C2 7800   7.301   3.992   5.393  0.3595 -0.4736  0.9241
   59POPC    HS 7801   7.209   3.937   5.421 -1.9709  3.3298  1.4479
   59POPC   O21 7802   7.331   3.991   5.249 -0.2814 -0.2973 -0.0093
   59POPC   C21 7803   7.224   3.998   5.174 -0.2458  0.5809 -0.1247
   59POPC   O22 7804   7.115   3.971   5.213  0.5043  0.3081  0.3095
   59POPC   C22 7805   7.260   4.043   5.039  0.4167 -0.2557  0.5203
   59POPC   H2R 7806   7.362   4.011   5.007  0.5633 -0.8535  1.5683
   59POPC   H2S 7807   7.261   4.154   5.039  0.1747 -0.2539  0.7352
   59POPC    C3 7808   7.286   4.133   5.455  0.6404  0.4766 -0.3184
   59POPC    HX 7809   7.386   4.175   5.430  1.0917  1.4321  2.7001
   59POPC    HY 7810   7.280   4.139   5.566  0.0428  0.8456 -0.3692
   59POPC   O31 7811   7.181   4.202   5.394 -0.0770  0.2423 -0.3835
   59POPC   C31 7812   7.085   4.248   5.475 -0.3904 -0.3318  0.3419
   59POPC   O32 7813   7.086   4.230   5.593 -0.5746 -0.0651  0.2274
   59POPC   C32 7814   6.967   4.318   5.401  0.0951 -0.5557  0.9448
   59POPC   H2X 7815   6.967   4.423   5.438 -0.5084 -0.1754 -0.1148
   59POPC   H2Y 7816   6.876   4.258   5.418  0.1823 -1.8125 -2.3045
   59POPC   C23 7817   7.157   3.998   4.933 -0.1621  0.7919  0.1341
   59POPC   H3R 7818   7.194   4.043   4.839  2.4321 -3.1209 -0.9500
   59POPC   H3S 7819   7.059   4.046   4.952 -0.0523  0.3481  2.0806
   59POPC   C24 7820   7.151   3.839   4.914  0.4608  0.3509 -0.5031
   59POPC   H4R 7821   7.155   3.784   5.010  1.4339 -0.5001 -1.0189
   59POPC   H4S 7822   7.242   3.810   4.857  0.2757 -0.7068 -0.2681
   59POPC   C25 7823   7.024   3.783   4.841 -0.2254 -0.6005 -0.0958
   59POPC   H5R 7824   6.936   3.816   4.901  0.3637 -3.2995  2.4588
   59POPC   H5S 7825   7.022   3.672   4.838 -4.2905 -0.6603 -0.6174
   59POPC   C26 7826   7.016   3.829   4.697 -0.3251  0.3828 -0.2414
   59POPC   H6R 7827   7.113   3.852   4.648  0.0863 -1.9498 -0.6453
   59POPC   H6S 7828   6.963   3.927   4.708  0.4072  0.6626  0.8831
   59POPC   C27 7829   6.929   3.749   4.606  0.0842  0.0659 -0.6957
   59POPC   H7R 7830   6.834   3.733   4.663  1.0165 -1.3757  0.5452
   59POPC   H7S 7831   6.978   3.651   4.590 -0.5366 -0.5415  0.8335
   59POPC   C28 7832   6.886   3.816   4.475  0.3406 -0.5409 -0.9867
   59POPC   H8R 7833   6.845   3.917   4.492  0.6781 -0.1986 -2.1323
   59POPC   H8S 7834   6.806   3.746   4.443 -1.5197 -0.6348  3.1704
   59POPC   C29 7835   6.996   3.839   4.375 -0.1156  0.7135  0.3869
   59POPC   H91 7836   7.037   3.755   4.317  3.3260  2.2200  0.4032
   59POPC  C210 7837   7.075   3.947   4.347 -0.4165 -0.7667 -0.8115
   59POPC  H101 7838   7.158   3.935   4.275  0.0428 -1.8093 -0.1500
   59POPC  C211 7839   7.076   4.086   4.413  0.1031 -0.8926 -0.0127
   59POPC  H11R 7840   6.991   4.091   4.484 -0.6706 -0.0757 -0.9817
   59POPC  H11S 7841   7.056   4.162   4.335  1.8294 -0.1054  0.2607
   59POPC  C212 7842   7.211   4.123   4.481  0.4445 -0.6372  0.5004
   59POPC  H12R 7843   7.291   4.100   4.408  0.1307 -1.5015  0.4137
   59POPC  H12S 7844   7.217   4.066   4.577  0.9456 -1.0551  0.2252
   59POPC  C213 7845   7.240   4.271   4.507  0.6849 -0.2612  0.2247
   59POPC  H13R 7846   7.168   4.302   4.585 -2.4105 -0.9567 -2.1510
   59POPC  H13S 7847   7.224   4.343   4.424  1.5999  0.9095  1.0278
   59POPC  C214 7848   7.378   4.298   4.567  0.1372 -0.2386  0.4223
   59POPC  H14R 7849   7.450   4.306   4.483 -0.8586 -2.0040 -0.6597
   59POPC  H14S 7850   7.416   4.205   4.613  1.8757  1.2272  2.1534
   59POPC  C215 7851   7.395   4.415   4.663 -0.4320  0.1771  0.0266
   59POPC  H15R 7852   7.327   4.500   4.640  1.0147  1.2391 -0.4836
   59POPC  H15S 7853   7.497   4.461   4.658 -1.9617  4.0100  0.3894
   59POPC  C216 7854   7.360   4.378   4.812  0.2310  0.2262 -0.5643
   59POPC  H16R 7855   7.411   4.284   4.841 -0.5490  0.6873  2.7436
   59POPC  H16S 7856   7.250   4.365   4.808  0.2391  0.1143 -0.4229
   59POPC  C217 7857   7.399   4.486   4.916  0.6148 -0.0149 -0.1714
   59POPC  H17R 7858   7.350   4.580   4.885  1.7808  0.7562  0.2694
   59POPC  H17S 7859   7.509   4.501   4.922  0.4771  0.6392  1.0259
   59POPC  C218 7860   7.352   4.442   5.047  0.3983  0.1470  0.0144
   59POPC  H18R 7861   7.344   4.523   5.122 -1.3457 -0.2570  0.3010
   59POPC  H18S 7862   7.421   4.362   5.083  0.4030 -0.4396 -1.2262
   59POPC  H18T 7863   7.249   4.401   5.043  0.8101 -1.1305  1.5786
   59POPC   C33 7864   6.997   4.333   5.249  0.1171 -0.1495 -0.5514
   59POPC   H3X 7865   7.035   4.240   5.201  0.0558 -0.6730  0.3919
   59POPC   H3Y 7866   7.083   4.404   5.247  1.8500 -2.1539 -0.0306
   59POPC   C34 7867   6.878   4.392   5.175 -0.0980  0.9884  0.0708
   59POPC   H4X 7868   6.822   4.466   5.235  0.4234  2.9252 -1.7295
   59POPC   H4Y 7869   6.797   4.315   5.170 -1.0590  2.0004 -0.4400
   59POPC   C35 7870   6.900   4.447   5.037  0.3671 -0.2186  0.0822
   59POPC   H5X 7871   6.801   4.458   4.989 -0.2434  0.9689  1.5645
   59POPC   H5Y 7872   6.959   4.379   4.970  1.3485  0.4482  0.2430
   59POPC   C36 7873   6.962   4.581   5.043  0.1347 -0.0845  0.9953
   59POPC   H6X 7874   7.072   4.585   5.063  0.3798 -1.5742  0.0151
   59POPC   H6Y 7875   6.924   4.655   5.117  2.6747  1.5424  0.8313
   59POPC   C37 7876   6.936   4.658   4.910 -0.3338  0.1813  0.6056
   59POPC   H7X 7877   6.979   4.759   4.924  0.5178 -0.2181  0.8959
   59POPC   H7Y 7878   6.825   4.667   4.899 -0.2372  2.3060  1.0428
   59POPC   C38 7879   6.997   4.590   4.789  0.0764  0.5457  0.6452
   59POPC   H8X 7880   6.949   4.492   4.770 -1.6372  1.6848 -1.2009
   59POPC   H8Y 7881   7.108   4.587   4.800  0.3526  3.6181 -0.3263
   59POPC   C39 7882   6.988   4.682   4.662  0.1067  0.1266  0.3887
   59POPC   H9X 7883   7.062   4.765   4.670 -0.8913  1.0845 -0.0527
   59POPC   H9Y 7884   6.887   4.722   4.640 -1.2305 -3.7830 -1.4530
   59POPC  C310 7885   7.034   4.595   4.537 -0.0483 -0.3415 -0.2097
   59POPC  H10X 7886   6.986   4.495   4.538 -0.6533 -0.0526  0.3756
   59POPC  H10Y 7887   7.142   4.583   4.560 -0.0017 -1.3575 -0.9075
   59POPC  C311 7888   7.014   4.654   4.400 -0.1955  0.1809  0.7130
   59POPC  H11X 7889   7.065   4.753   4.389 -0.4284  0.0924 -1.6363
   59POPC  H11Y 7890   6.905   4.657   4.383 -0.9716  1.3086  4.7384
   59POPC  C312 7891   7.085   4.558   4.301  0.7491 -0.0177 -0.5608
   59POPC  H12X 7892   7.056   4.454   4.325 -2.3519  0.6453 -0.9622
   59POPC  H12Y 7893   7.196   4.566   4.310  0.7093  0.6665 -0.6142
   59POPC  C313 7894   7.064   4.577   4.145  0.3105 -0.4195 -0.2582
   59POPC  H13X 7895   6.962   4.541   4.117  0.0195 -0.3644  0.6793
   59POPC  H13Y 7896   7.135   4.511   4.091  0.8990  1.0898 -1.3921
   59POPC  C314 7897   7.084   4.724   4.101  0.6501  0.0395  0.2558
   59POPC  H14X 7898   7.192   4.749   4.115  2.1320 -2.6207 -4.3135
   59POPC  H14Y 7899   7.016   4.790   4.159 -1.9006 -2.5976  0.4747
   59POPC  C315 7900   7.035   4.745   3.956  0.1051 -0.0968  0.3902
   59POPC  H15X 7901   7.020   4.855   3.956  0.7206 -0.0075 -0.0221
   59POPC  H15Y 7902   6.937   4.695   3.941 -0.3729  0.4561  1.5503
   59POPC  C316 7903   7.139   4.695   3.846  1.1408 -0.6036  0.3329
   59POPC  H16X 7904   7.242   4.687   3.886  1.1538 -2.4534 -0.0007
   59POPC  H16Y 7905   7.158   4.762   3.759 -1.2185  0.0150  0.2208
   59POPC  H16Z 7906   7.118   4.592   3.809 -2.9306 -0.6894  2.3622
   60POPC     N 7907   1.574   7.325   5.638  0.0596  0.1571  0.2046
   60POPC   C12 7908   1.537   7.232   5.525 -0.4044 -0.4257 -0.4448
   60POPC  H12A 7909   1.466   7.158   5.559 -1.1542  0.1191 -0.7926
   60POPC  H12B 7910   1.631   7.183   5.501 -0.1147 -0.1875  0.1875
   60POPC   C13 7911   1.453   7.399   5.674  0.1303  0.6486  0.0984
   60POPC  H13A 7912   1.476   7.476   5.747  3.4239  0.4698 -0.5810
   60POPC  H13B 7913   1.402   7.448   5.593 -0.8566  0.5690  0.6513
   60POPC  H13C 7914   1.390   7.327   5.723  1.0530  0.3088  0.8310
   60POPC   C14 7915   1.642   7.259   5.754 -0.0965 -0.3255  0.5394
   60POPC  H14A 7916   1.697   7.328   5.817 -2.1755  1.4324  0.5287
   60POPC  H14B 7917   1.576   7.204   5.818 -0.3728  1.4884  1.8902
   60POPC  H14C 7918   1.712   7.186   5.715 -1.8331 -0.7263 -2.1229
   60POPC   C15 7919   1.683   7.432   5.590 -0.7932  0.2223  0.4697
   60POPC  H15A 7920   1.687   7.515   5.659  0.2872  0.4405  0.1677
   60POPC  H15B 7921   1.667   7.463   5.487  1.2230 -0.1758  0.0044
   60POPC  H15C 7922   1.778   7.382   5.590  0.5101  2.5087 -0.8234
   60POPC   C11 7923   1.462   7.288   5.402 -0.3509  0.0048  0.4952
   60POPC  H11A 7924   1.356   7.307   5.428 -0.1623  0.3607  1.0388
   60POPC  H11B 7925   1.461   7.204   5.330  0.7537  0.6058 -0.2491
   60POPC     P 7926   1.446   7.518   5.274 -0.3569  0.4692  0.2537
   60POPC   O13 7927   1.538   7.591   5.184 -0.3330 -0.3162  0.3026
   60POPC   O14 7928   1.381   7.592   5.382  0.6965  0.1962 -0.4726
   60POPC   O12 7929   1.524   7.395   5.337 -1.0314 -0.1302 -0.1071
   60POPC   O11 7930   1.331   7.453   5.191 -0.2060 -0.1494  0.0499
   60POPC    C1 7931   1.344   7.344   5.103 -0.2668  0.2009  0.0580
   60POPC    HA 7932   1.311   7.254   5.159 -0.0012  0.1452  0.1242
   60POPC    HB 7933   1.446   7.334   5.060  0.5328  0.9214  1.6909
   60POPC    C2 7934   1.244   7.346   4.990 -0.0452 -0.9859  0.5780
   60POPC    HS 7935   1.276   7.262   4.924  0.4425 -2.1853  2.2755
   60POPC   O21 7936   1.245   7.467   4.909 -0.1212  0.2971  0.5458
   60POPC   C21 7937   1.363   7.499   4.864 -0.1293 -0.4663 -0.0849
   60POPC   O22 7938   1.462   7.424   4.855  0.1381 -0.6037  0.1133
   60POPC   C22 7939   1.368   7.643   4.806 -0.3345 -0.7140 -0.7286
   60POPC   H2R 7940   1.452   7.693   4.858  0.1868 -0.8433 -1.4406
   60POPC   H2S 7941   1.275   7.701   4.827  0.3551  0.0035  0.4169
   60POPC    C3 7942   1.093   7.323   5.029  0.5268 -0.3318 -0.3022
   60POPC    HX 7943   1.044   7.423   5.028 -1.2413 -1.1313  1.5064
   60POPC    HY 7944   1.090   7.278   5.130 -1.0928  0.7917  0.1971
   60POPC   O31 7945   1.035   7.229   4.930  0.2890  0.0311  0.4660
   60POPC   C31 7946   0.910   7.250   4.912  0.3532  0.0772 -0.1597
   60POPC   O32 7947   0.845   7.339   4.965 -0.1102  0.0484  0.1286
   60POPC   C32 7948   0.856   7.141   4.818 -0.2290  0.5738 -0.1819
   60POPC   H2X 7949   0.751   7.124   4.850  0.9753 -1.2100  3.3733
   60POPC   H2Y 7950   0.907   7.043   4.825 -2.1681 -0.3958  1.3274
   60POPC   C23 7951   1.394   7.651   4.654  0.1997  0.2838  0.1361
   60POPC   H3R 7952   1.326   7.584   4.598 -0.0733  0.0978  0.6840
   60POPC   H3S 7953   1.498   7.627   4.623  0.1150 -0.8888  0.7253
   60POPC   C24 7954   1.369   7.793   4.599 -0.3479  0.2623 -0.3020
   60POPC   H4R 7955   1.266   7.829   4.617  0.4355  2.5102  0.0634
   60POPC   H4S 7956   1.393   7.809   4.492 -0.1769 -1.5752 -0.5704
   60POPC   C25 7957   1.463   7.897   4.673 -0.0657  0.5420 -0.0859
   60POPC   H5R 7958   1.562   7.868   4.633 -1.3300 -2.5703 -1.3114
   60POPC   H5S 7959   1.459   7.880   4.783  0.1759 -1.5736 -0.3496
   60POPC   C26 7960   1.428   8.043   4.641  0.5225  0.2917 -0.2575
   60POPC   H6R 7961   1.319   8.057   4.628  0.5018 -1.0059 -1.8683
   60POPC   H6S 7962   1.474   8.071   4.544  0.9896  2.1346  0.4477
   60POPC   C27 7963   1.480   8.144   4.748 -0.6811 -0.1094  0.0359
   60POPC   H7R 7964   1.588   8.124   4.767 -0.3193  0.3419 -1.4606
   60POPC   H7S 7965   1.430   8.107   4.841  2.3264 -0.8232  1.5100
   60POPC   C28 7966   1.461   8.294   4.720 -0.0299  0.5431  0.4100
   60POPC   H8R 7967   1.521   8.335   4.636 -2.1762 -0.7439 -1.9154
   60POPC   H8S 7968   1.509   8.337   4.810 -0.9485 -3.1681  2.9026
   60POPC   C29 7969   1.310   8.329   4.723 -0.6324  0.0150  0.3748
   60POPC   H91 7970   1.269   8.314   4.824  1.6150 -1.4442  1.1582
   60POPC  C210 7971   1.227   8.354   4.626 -0.1404 -1.1717  0.0422
   60POPC  H101 7972   1.119   8.364   4.641 -0.0635 -0.2072  0.0388
   60POPC  C211 7973   1.276   8.363   4.482  0.0735 -0.4706 -0.5718
   60POPC  H11R 7974   1.376   8.320   4.463  0.3466  0.9443 -2.6147
   60POPC  H11S 7975   1.279   8.472   4.462  0.2331  0.5379  3.9023
   60POPC  C212 7976   1.179   8.300   4.377 -0.0160  0.4220 -0.1278
   60POPC  H12R 7977   1.081   8.340   4.409 -0.9662 -0.0951 -2.1879
   60POPC  H12S 7978   1.175   8.189   4.384 -0.7887  0.4667  0.1760
   60POPC  C213 7979   1.202   8.343   4.233 -0.5985 -0.6822  0.2576
   60POPC  H13R 7980   1.153   8.441   4.213  0.8855 -0.1937 -1.2641
   60POPC  H13S 7981   1.142   8.270   4.175 -0.5202 -1.0832  0.6781
   60POPC  C214 7982   1.350   8.354   4.189  0.5488  0.2234 -0.1115
   60POPC  H14R 7983   1.394   8.256   4.214  1.5744  1.1079  1.6943
   60POPC  H14S 7984   1.395   8.434   4.251  1.5329  1.4797 -2.3340
   60POPC  C215 7985   1.370   8.372   4.040 -0.9956  0.2911 -0.1242
   60POPC  H15R 7986   1.313   8.300   3.976  0.7030 -0.7495 -0.5296
   60POPC  H15S 7987   1.477   8.372   4.011 -1.0277  0.1798 -0.2470
   60POPC  C216 7988   1.321   8.507   3.985 -0.2894  0.0126 -0.0686
   60POPC  H16R 7989   1.214   8.526   4.007 -0.1233  2.1419 -0.8157
   60POPC  H16S 7990   1.317   8.512   3.874 -1.4519 -1.5336 -0.1284
   60POPC  C217 7991   1.399   8.625   4.042 -0.1718 -0.7817  0.2173
   60POPC  H17R 7992   1.506   8.606   4.022 -0.3174 -0.6857 -0.7052
   60POPC  H17S 7993   1.392   8.601   4.150 -1.0249 -2.1904 -0.1189
   60POPC  C218 7994   1.347   8.768   4.021  0.5933  0.1405 -0.0788
   60POPC  H18R 7995   1.408   8.843   4.074 -0.8013  2.0404 -1.0476
   60POPC  H18S 7996   1.240   8.780   4.049  1.3771  2.2420  2.3304
   60POPC  H18T 7997   1.345   8.817   3.921 -1.9876  1.2578  0.4378
   60POPC   C33 7998   0.867   7.186   4.669 -0.2857  0.1423 -0.2251
   60POPC   H3X 7999   0.826   7.290   4.664  1.0496  0.6679 -0.6546
   60POPC   H3Y 8000   0.802   7.119   4.609  2.8582 -2.8128 -0.5928
   60POPC   C34 8001   1.008   7.193   4.610 -0.6858 -0.1352 -0.4841
   60POPC   H4X 8002   1.052   7.093   4.589  0.4187 -0.4623  2.8014
   60POPC   H4Y 8003   1.084   7.247   4.671 -2.5776  0.1241  1.7885
   60POPC   C35 8004   1.009   7.264   4.473  0.3681 -0.4310 -0.3871
   60POPC   H5X 8005   1.107   7.245   4.424  1.1104  1.2495  0.3520
   60POPC   H5Y 8006   0.987   7.373   4.486 -3.5852 -1.2631  1.2345
   60POPC   C36 8007   0.915   7.189   4.370  0.5609 -0.2097  1.0382
   60POPC   H6X 8008   0.806   7.203   4.388  0.5644  0.2443  0.7317
   60POPC   H6Y 8009   0.930   7.080   4.382 -0.3614 -0.3037  1.4282
   60POPC   C37 8010   0.947   7.226   4.223  0.4690 -0.1008  0.4509
   60POPC   H7X 8011   1.053   7.214   4.192  0.2541 -2.1837  0.3822
   60POPC   H7Y 8012   0.919   7.333   4.217  0.3110 -0.0265  2.0213
   60POPC   C38 8013   0.859   7.139   4.143  0.3168 -0.4269  0.4322
   60POPC   H8X 8014   0.754   7.148   4.176  0.2330  0.5351 -0.0530
   60POPC   H8Y 8015   0.886   7.032   4.152 -0.2090 -0.4807  1.4976
   60POPC   C39 8016   0.856   7.179   3.991 -0.0487 -1.0111  0.4552
   60POPC   H9X 8017   0.959   7.171   3.950  0.1933  0.9432  0.5973
   60POPC   H9Y 8018   0.827   7.285   3.977  1.1676 -0.8102 -0.7556
   60POPC  C310 8019   0.785   7.088   3.899 -0.0501  0.2513  0.1379
   60POPC  H10X 8020   0.795   6.984   3.939 -1.2033 -0.0932 -0.4157
   60POPC  H10Y 8021   0.832   7.089   3.799 -2.0007 -3.0287 -0.9985
   60POPC  C311 8022   0.632   7.116   3.890  0.3449 -1.1165 -0.6229
   60POPC  H11X 8023   0.604   7.209   3.836  1.6587 -2.2436 -3.4382
   60POPC  H11Y 8024   0.598   7.133   3.994 -1.1061 -0.7571 -1.1341
   60POPC  C312 8025   0.561   7.003   3.830  0.7001  0.7678 -0.0976
   60POPC  H12X 8026   0.530   6.934   3.912  1.2971  1.7740  1.0130
   60POPC  H12Y 8027   0.636   6.937   3.783 -0.3090  0.9028 -2.0254
   60POPC  C313 8028   0.453   7.032   3.727  0.0775 -0.2897 -0.5820
   60POPC  H13X 8029   0.501   7.101   3.654 -0.0639  0.0464 -0.3602
   60POPC  H13Y 8030   0.370   7.080   3.782 -0.8268  0.9555 -2.8854
   60POPC  C314 8031   0.393   6.905   3.661  0.0093  0.2067  1.1439
   60POPC  H14X 8032   0.377   6.825   3.736  0.2870 -1.3509 -0.3945
   60POPC  H14Y 8033   0.458   6.869   3.579 -0.3947  0.1468  0.8446
   60POPC  C315 8034   0.253   6.924   3.595  0.1733 -0.8494 -0.2941
   60POPC  H15X 8035   0.258   7.019   3.537 -1.5293 -2.1115 -2.6786
   60POPC  H15Y 8036   0.172   6.937   3.669 -0.0277 -1.1343 -0.4629
   60POPC  C316 8037   0.207   6.814   3.497 -0.2031  0.6293  0.0032
   60POPC  H16X 8038   0.103   6.836   3.464  0.2217  1.5498 -0.7829
   60POPC  H16Y 8039   0.208   6.712   3.541 -0.6805  0.6573  0.0877
   60POPC  H16Z 8040   0.266   6.817   3.403  2.6355 -1.7410  1.5662
   61POPC     N 8041   1.237   4.988   6.203 -0.3633 -0.3552  0.2912
   61POPC   C12 8042   1.271   5.045   6.072 -0.1673 -0.0229  0.0308
   61POPC  H12A 8043   1.359   5.106   6.079  0.2474 -0.5131 -0.7479
   61POPC  H12B 8044   1.185   5.106   6.047 -0.8325  0.5839  3.4295
   61POPC   C13 8045   1.357   4.947   6.277 -0.0093 -0.2473 -0.1007
   61POPC  H13A 8046   1.407   4.869   6.223 -1.7058 -0.1336 -2.0011
   61POPC  H13B 8047   1.428   5.026   6.295  2.7216 -2.2693 -1.2980
   61POPC  H13C 8048   1.327   4.905   6.372 -0.9998 -1.9216 -1.1024
   61POPC   C14 8049   1.177   5.101   6.291  0.2285  0.4126  0.4419
   61POPC  H14A 8050   1.238   5.190   6.290 -0.9361  1.3284 -3.2024
   61POPC  H14B 8051   1.085   5.138   6.247  2.7189  6.1301 -0.9135
   61POPC  H14C 8052   1.157   5.071   6.393 -0.8894 -0.1280  0.0830
   61POPC   C15 8053   1.146   4.872   6.209  0.3645  0.0255 -0.2511
   61POPC  H15A 8054   1.099   4.866   6.306  2.3919 -2.2413  0.7155
   61POPC  H15B 8055   1.190   4.776   6.185 -2.4920 -1.6622  0.7744
   61POPC  H15C 8056   1.057   4.882   6.149 -1.2075  0.7510  2.0489
   61POPC   C11 8057   1.302   4.945   5.955 -0.6957 -0.1111 -0.0190
   61POPC  H11A 8058   1.315   4.993   5.856 -0.8627  0.8432  0.4086
   61POPC  H11B 8059   1.216   4.880   5.927 -0.8216  0.4158 -0.8876
   61POPC     P 8060   1.561   4.928   5.962 -0.1821 -0.2501 -0.0304
   61POPC   O13 8061   1.669   4.845   6.019  0.2845  0.2891  0.4603
   61POPC   O14 8062   1.562   5.074   5.991  0.0663 -0.7623  0.1440
   61POPC   O12 8063   1.419   4.871   5.996  0.1738  0.0973  0.0422
   61POPC   O11 8064   1.563   4.916   5.810 -0.3283 -0.1198  0.5801
   61POPC    C1 8065   1.556   4.802   5.727 -0.3422  0.2610  0.3812
   61POPC    HA 8066   1.450   4.782   5.697  0.0473  1.4630 -2.0129
   61POPC    HB 8067   1.586   4.707   5.776 -1.3645 -1.2748 -1.7994
   61POPC    C2 8068   1.646   4.807   5.593 -0.0093  0.3598  0.1566
   61POPC    HS 8069   1.578   4.838   5.511  0.0669  1.3573  0.4476
   61POPC   O21 8070   1.710   4.676   5.565  0.9991  0.0355  0.4474
   61POPC   C21 8071   1.628   4.576   5.531  0.2158  0.6865  0.0839
   61POPC   O22 8072   1.513   4.587   5.488 -0.4600  0.8259 -0.0396
   61POPC   C22 8073   1.707   4.443   5.536 -0.7496 -0.4475  0.1661
   61POPC   H2R 8074   1.659   4.375   5.611 -0.3996  0.2422  1.0348
   61POPC   H2S 8075   1.814   4.458   5.562 -0.9202 -2.3845  2.3670
   61POPC    C3 8076   1.759   4.914   5.607  0.3167  0.1045  0.5091
   61POPC    HX 8077   1.796   4.908   5.711 -0.8245  1.0456  0.9848
   61POPC    HY 8078   1.698   5.005   5.588 -0.6306 -0.8187 -1.1771
   61POPC   O31 8079   1.855   4.893   5.500 -0.2464  0.3234 -0.4646
   61POPC   C31 8080   1.974   4.869   5.538 -0.2125 -0.6425 -0.3637
   61POPC   O32 8081   2.014   4.860   5.655  0.0098  0.0424  0.7187
   61POPC   C32 8082   2.073   4.863   5.420  0.2825 -0.2624 -0.0960
   61POPC   H2X 8083   2.106   4.757   5.412 -0.8373 -0.7254  1.0215
   61POPC   H2Y 8084   2.153   4.937   5.442 -1.3744  1.3331  0.8820
   61POPC   C23 8085   1.694   4.373   5.405 -0.5069  0.3004  0.1422
   61POPC   H3R 8086   1.609   4.392   5.336  3.2595  1.8132 -4.6474
   61POPC   H3S 8087   1.683   4.267   5.435  1.7452  0.1571  0.7104
   61POPC   C24 8088   1.822   4.368   5.323  0.4273 -0.1317 -0.0452
   61POPC   H4R 8089   1.794   4.313   5.231 -0.8176 -1.0706  0.8559
   61POPC   H4S 8090   1.901   4.314   5.379 -0.0692 -0.0137  0.7893
   61POPC   C25 8091   1.858   4.511   5.280 -0.0759  0.0844  0.3675
   61POPC   H5R 8092   1.892   4.582   5.358  0.1325 -0.5566  0.8659
   61POPC   H5S 8093   1.762   4.556   5.245 -0.4531 -0.7059  0.3649
   61POPC   C26 8094   1.967   4.509   5.180  0.6680 -0.1488  0.3290
   61POPC   H6R 8095   1.985   4.610   5.137 -0.7401  0.0310  0.1139
   61POPC   H6S 8096   1.930   4.435   5.106 -1.3883 -0.2990  1.4424
   61POPC   C27 8097   2.100   4.457   5.232  0.6079 -0.1666  1.1911
   61POPC   H7R 8098   2.084   4.348   5.239 -2.0391  0.1144  0.5951
   61POPC   H7S 8099   2.115   4.491   5.337 -4.1850  1.1024  1.6956
   61POPC   C28 8100   2.221   4.489   5.135 -0.3671 -0.1338  0.1667
   61POPC   H8R 8101   2.262   4.589   5.159  0.8004  0.5368 -3.9318
   61POPC   H8S 8102   2.180   4.493   5.032  2.5138  1.8292 -1.0526
   61POPC   C29 8103   2.326   4.381   5.134  0.3825 -0.5394 -0.6257
   61POPC   H91 8104   2.284   4.280   5.144 -2.2136  0.5914  0.9074
   61POPC  C210 8105   2.463   4.401   5.142 -0.3016 -0.1648 -0.0380
   61POPC  H101 8106   2.533   4.318   5.158 -0.0647  0.3155  1.5943
   61POPC  C211 8107   2.538   4.530   5.153  0.6466  0.4626  0.1301
   61POPC  H11R 8108   2.527   4.568   5.256  0.3545 -0.2233  0.3583
   61POPC  H11S 8109   2.487   4.612   5.097  1.1444  1.1397  0.6517
   61POPC  C212 8110   2.690   4.528   5.119 -0.1023  0.1525  0.7678
   61POPC  H12R 8111   2.714   4.423   5.092  0.7518  1.0723 -2.5910
   61POPC  H12S 8112   2.743   4.568   5.208  1.6034 -0.4882  0.0827
   61POPC  C213 8113   2.722   4.629   5.007  0.1357 -0.7149  0.3103
   61POPC  H13R 8114   2.671   4.726   5.026 -0.2127 -0.5061 -1.5434
   61POPC  H13S 8115   2.671   4.600   4.913  3.6457 -0.5674 -1.8011
   61POPC  C214 8116   2.871   4.634   4.985 -0.5829  0.3236 -0.1705
   61POPC  H14R 8117   2.908   4.530   4.972  1.3964  1.0511 -0.7741
   61POPC  H14S 8118   2.918   4.661   5.082  0.0131 -0.5439 -0.2041
   61POPC  C215 8119   2.916   4.712   4.862 -0.2118 -0.4080  0.6684
   61POPC  H15R 8120   2.881   4.818   4.868  1.0459  0.0694 -0.0658
   61POPC  H15S 8121   2.876   4.664   4.770  0.6902 -0.1877  0.1485
   61POPC  C216 8122   3.066   4.707   4.853  0.5944 -0.6617 -0.4529
   61POPC  H16R 8123   3.088   4.599   4.843  0.1335 -0.9848  1.4925
   61POPC  H16S 8124   3.111   4.737   4.950 -0.0461  0.6246 -0.5304
   61POPC  C217 8125   3.138   4.777   4.731  0.2544 -0.7512 -0.5862
   61POPC  H17R 8126   3.106   4.883   4.740 -0.2221 -1.0211  1.4843
   61POPC  H17S 8127   3.091   4.720   4.648  1.1115 -2.5827  0.1291
   61POPC  C218 8128   3.289   4.756   4.732 -0.2135  0.2201 -0.0433
   61POPC  H18R 8129   3.350   4.796   4.649  0.1689  0.9848  0.5932
   61POPC  H18S 8130   3.320   4.653   4.760  1.8965  0.8926  0.2671
   61POPC  H18T 8131   3.317   4.810   4.825 -0.9130 -0.7249  0.7420
   61POPC   C33 8132   2.012   4.902   5.280  0.4575  0.4991  0.6930
   61POPC   H3X 8133   1.964   5.002   5.278  2.6147  1.5878 -1.1581
   61POPC   H3Y 8134   1.928   4.836   5.250  0.1229  1.4103 -0.4650
   61POPC   C34 8135   2.107   4.890   5.163 -0.4991 -0.1893 -0.8197
   61POPC   H4X 8136   2.150   4.787   5.154  2.5203  1.0410 -1.8879
   61POPC   H4Y 8137   2.183   4.964   5.196 -1.1041  0.2182 -0.3237
   61POPC   C35 8138   2.032   4.935   5.038  0.6936 -0.3287 -0.5283
   61POPC   H5X 8139   1.984   5.030   5.070  0.6282 -0.7415  0.6632
   61POPC   H5Y 8140   1.947   4.871   5.008 -1.3836  2.1654 -0.2656
   61POPC   C36 8141   2.121   4.941   4.908  0.5903  0.3010  0.3855
   61POPC   H6X 8142   2.191   4.855   4.904  1.0222  0.6792 -0.5687
   61POPC   H6Y 8143   2.183   5.033   4.908 -1.8502  2.2983 -3.8298
   61POPC   C37 8144   2.034   4.934   4.780  0.1288 -0.5806 -0.3130
   61POPC   H7X 8145   1.951   5.004   4.805  0.8881 -0.2441  1.3372
   61POPC   H7Y 8146   1.984   4.836   4.762 -1.7590  0.0454  1.2537
   61POPC   C38 8147   2.099   4.988   4.656 -0.6068 -0.6373 -0.6913
   61POPC   H8X 8148   2.203   4.952   4.643  0.4535  2.6303 -1.9350
   61POPC   H8Y 8149   2.102   5.097   4.676 -1.8448 -0.5814 -0.7347
   61POPC   C39 8150   2.021   4.962   4.525 -0.6747 -0.7445 -0.2105
   61POPC   H9X 8151   2.058   5.021   4.439 -1.1724  0.2255  0.2331
   61POPC   H9Y 8152   1.923   5.012   4.539 -1.1805 -1.8991  0.5368
   61POPC  C310 8153   1.997   4.824   4.482  0.9470  0.0950  0.1563
   61POPC  H10X 8154   1.953   4.820   4.380 -0.0635  2.3587  0.4449
   61POPC  H10Y 8155   1.930   4.777   4.557 -2.2504 -1.5861 -3.3988
   61POPC  C311 8156   2.134   4.744   4.462  0.3904 -0.1841 -0.5060
   61POPC  H11X 8157   2.180   4.733   4.563  1.6004  1.2968 -0.8748
   61POPC  H11Y 8158   2.212   4.808   4.415 -0.1962  0.5932 -0.4457
   61POPC  C312 8159   2.133   4.607   4.392 -0.2085 -0.2401  0.2301
   61POPC  H12X 8160   2.062   4.613   4.307  0.4521  3.3857 -0.2206
   61POPC  H12Y 8161   2.090   4.536   4.466  0.0258 -0.7256 -0.0877
   61POPC  C313 8162   2.270   4.564   4.341  0.2988  0.0870  0.0671
   61POPC  H13X 8163   2.335   4.655   4.335  2.5539 -1.4642 -0.3337
   61POPC  H13Y 8164   2.269   4.517   4.240  2.5029 -1.0089  0.4928
   61POPC  C314 8165   2.335   4.469   4.440 -0.4220  0.2383 -0.5874
   61POPC  H14X 8166   2.434   4.437   4.400 -0.2022 -0.4884  0.5012
   61POPC  H14Y 8167   2.273   4.377   4.432  2.8171 -2.3691  1.4948
   61POPC  C315 8168   2.333   4.500   4.592  0.2612  0.3458  0.4652
   61POPC  H15X 8169   2.229   4.503   4.632 -0.0851  1.4180 -0.4602
   61POPC  H15Y 8170   2.378   4.601   4.598  0.9065  0.2156 -1.4007
   61POPC  C316 8171   2.417   4.391   4.654  0.3743  0.1655  0.1279
   61POPC  H16X 8172   2.398   4.287   4.619 -0.1726  0.2010  0.3093
   61POPC  H16Y 8173   2.425   4.397   4.765  0.4968 -2.1007  0.2865
   61POPC  H16Z 8174   2.521   4.399   4.616  0.6673 -1.7928  0.4088
   62POPC     N 8175   5.832   4.797   5.564 -0.3809  0.3868  0.2686
   62POPC   C12 8176   5.901   4.900   5.490 -0.0670  0.2149 -0.3285
   62POPC  H12A 8177   5.951   4.953   5.569  0.6073 -1.6623  0.5649
   62POPC  H12B 8178   5.826   4.969   5.454  0.9551  2.0640  0.9414
   62POPC   C13 8179   5.735   4.728   5.475  0.1000 -0.1678  0.1515
   62POPC  H13A 8180   5.666   4.798   5.429  2.3201  2.2591  0.3347
   62POPC  H13B 8181   5.785   4.671   5.398 -1.2198  0.6903 -1.4225
   62POPC  H13C 8182   5.668   4.665   5.532 -1.3394  0.0957 -1.1766
   62POPC   C14 8183   5.922   4.695   5.624 -0.4811 -0.5278 -0.2880
   62POPC  H14A 8184   6.005   4.733   5.681 -1.4243 -0.3914  1.0548
   62POPC  H14B 8185   5.867   4.620   5.678  0.7043 -1.5549 -0.4743
   62POPC  H14C 8186   5.974   4.640   5.548  2.1811  0.3645  0.7735
   62POPC   C15 8187   5.753   4.848   5.681  0.1336 -0.5638 -0.1516
   62POPC  H15A 8188   5.821   4.899   5.747 -0.1973  1.8725 -1.5501
   62POPC  H15B 8189   5.713   4.760   5.729 -0.7034 -0.9605 -1.5147
   62POPC  H15C 8190   5.675   4.915   5.647 -1.7089 -2.5095  0.0395
   62POPC   C11 8191   6.007   4.860   5.383 -0.4348 -0.5384 -0.2987
   62POPC  H11A 8192   6.038   4.952   5.330  0.3052  0.3651  1.5956
   62POPC  H11B 8193   5.974   4.792   5.302 -0.5426  0.8405 -1.4453
   62POPC     P 8194   6.220   4.882   5.534 -0.1751  0.2523  0.8616
   62POPC   O13 8195   6.300   4.792   5.616  0.0873  0.5107  1.1433
   62POPC   O14 8196   6.149   4.982   5.616 -0.4103 -0.3701  0.4495
   62POPC   O12 8197   6.122   4.800   5.446  0.0679 -0.2938 -0.0598
   62POPC   O11 8198   6.321   4.953   5.430 -0.0319  0.1619  0.1339
   62POPC    C1 8199   6.366   4.878   5.320 -0.6018 -0.0017  0.3173
   62POPC    HA 8200   6.374   4.933   5.224 -0.4567 -0.0541  0.3002
   62POPC    HB 8201   6.297   4.795   5.294  0.4944 -1.3770  1.6299
   62POPC    C2 8202   6.507   4.814   5.360 -0.0099  0.7468 -0.2343
   62POPC    HS 8203   6.478   4.735   5.432 -4.0737  0.3017 -2.0779
   62POPC   O21 8204   6.594   4.914   5.411 -0.8207  0.0224  0.0954
   62POPC   C21 8205   6.689   4.876   5.496  0.2399 -0.2108 -0.8215
   62POPC   O22 8206   6.699   4.769   5.553  0.3366  0.5559  0.4292
   62POPC   C22 8207   6.795   4.988   5.513 -1.3131 -0.4005 -0.1947
   62POPC   H2R 8208   6.804   5.013   5.621 -0.1388 -0.2895 -0.2992
   62POPC   H2S 8209   6.773   5.082   5.459  2.5350  0.8976  0.1510
   62POPC    C3 8210   6.575   4.724   5.253 -0.6670 -0.4489  0.0207
   62POPC    HX 8211   6.662   4.669   5.296  0.3697  0.4820 -0.8014
   62POPC    HY 8212   6.620   4.800   5.186  0.6513 -1.9462 -0.8612
   62POPC   O31 8213   6.482   4.648   5.177  0.0844  0.1551 -0.2796
   62POPC   C31 8214   6.483   4.513   5.192 -0.0188 -0.5018  0.7398
   62POPC   O32 8215   6.566   4.453   5.251  0.1501 -0.2420  0.6598
   62POPC   C32 8216   6.359   4.451   5.122 -0.1395  0.0115 -0.2641
   62POPC   H2X 8217   6.308   4.519   5.051  0.5365  0.7568 -0.0452
   62POPC   H2Y 8218   6.283   4.424   5.199 -1.5913  0.9451 -1.3204
   62POPC   C23 8219   6.943   4.943   5.467  0.4951  0.0474  0.7882
   62POPC   H3R 8220   6.967   4.835   5.466  0.6521  0.0862 -0.1386
   62POPC   H3S 8221   7.011   5.002   5.533  0.4281  2.4330 -1.1139
   62POPC   C24 8222   6.983   4.988   5.324  0.2410  0.5133  0.5073
   62POPC   H4R 8223   6.991   5.097   5.306 -1.8161  0.5241 -0.6895
   62POPC   H4S 8224   6.903   4.943   5.260  0.6170 -0.9488  1.0295
   62POPC   C25 8225   7.111   4.917   5.295 -0.1537 -0.2837  0.3393
   62POPC   H5R 8226   7.101   4.809   5.319 -0.0819  0.4669  4.5322
   62POPC   H5S 8227   7.189   4.959   5.363  0.2393  0.2165 -0.4119
   62POPC   C26 8228   7.158   4.927   5.150  0.1383  0.2293  0.2036
   62POPC   H6R 8229   7.176   5.035   5.130  4.3163  0.0751  2.0578
   62POPC   H6S 8230   7.087   4.884   5.076  1.8733 -3.2176  0.3335
   62POPC   C27 8231   7.291   4.848   5.116 -0.3917  0.1101  1.0449
   62POPC   H7R 8232   7.269   4.740   5.107  0.1641  0.0888 -0.3293
   62POPC   H7S 8233   7.364   4.864   5.199  1.3362  1.3350 -0.6231
   62POPC   C28 8234   7.359   4.902   4.987 -0.3838 -0.0450 -0.0075
   62POPC   H8R 8235   7.464   4.864   4.987 -0.6775 -0.9381  1.2365
   62POPC   H8S 8236   7.364   5.012   5.003 -1.3796 -0.0601  0.5036
   62POPC   C29 8237   7.300   4.872   4.854 -0.3616 -0.2509  0.3016
   62POPC   H91 8238   7.268   4.770   4.832  2.0252 -1.1966  0.9118
   62POPC  C210 8239   7.288   4.957   4.751  0.1828  0.6448 -0.3152
   62POPC  H101 8240   7.247   4.915   4.657 -3.3160  0.5179  1.1027
   62POPC  C211 8241   7.325   5.098   4.736 -0.0483 -0.3624  0.4242
   62POPC  H11R 8242   7.420   5.114   4.681  0.9395 -1.8980  1.6240
   62POPC  H11S 8243   7.357   5.137   4.835  2.8216  0.2465 -0.6630
   62POPC  C212 8244   7.208   5.188   4.677  0.0168  0.0197  0.5499
   62POPC  H12R 8245   7.228   5.297   4.680  0.7450 -0.1166  1.8974
   62POPC  H12S 8246   7.119   5.170   4.740  0.1776 -2.7546  0.0929
   62POPC  C213 8247   7.169   5.142   4.539  0.9031 -0.2392  0.3359
   62POPC  H13R 8248   7.089   5.211   4.507  1.0842  0.2311  0.8907
   62POPC  H13S 8249   7.138   5.035   4.534 -2.1631  0.4307  2.4253
   62POPC  C214 8250   7.286   5.170   4.441 -0.8237  0.1208 -0.0390
   62POPC  H14R 8251   7.383   5.132   4.478 -0.2239 -2.6106 -3.7316
   62POPC  H14S 8252   7.313   5.277   4.435  0.8909 -0.3500 -2.2573
   62POPC  C215 8253   7.246   5.127   4.297  0.7529  0.6200 -0.6079
   62POPC  H15R 8254   7.179   5.205   4.255  0.5717  0.3015 -0.9217
   62POPC  H15S 8255   7.190   5.030   4.300  0.0679  0.9880  2.8836
   62POPC  C216 8256   7.376   5.111   4.214  0.0160 -0.8791 -0.2440
   62POPC  H16R 8257   7.437   5.021   4.237  0.7668  0.0265  1.5789
   62POPC  H16S 8258   7.438   5.200   4.238 -1.5380  0.2168 -0.1813
   62POPC  C217 8259   7.354   5.111   4.057  0.2445  0.1093  0.1322
   62POPC  H17R 8260   7.300   5.203   4.026 -1.5859 -1.0723 -0.3476
   62POPC  H17S 8261   7.287   5.026   4.030  1.3322 -1.2631  1.5143
   62POPC  C218 8262   7.484   5.093   3.989  0.7571 -0.1740  0.2500
   62POPC  H18R 8263   7.475   5.082   3.879 -1.1106 -0.5829  0.4177
   62POPC  H18S 8264   7.544   5.012   4.035 -0.8403 -1.3079  0.4184
   62POPC  H18T 8265   7.540   5.189   3.991  0.5703  0.0314 -1.9793
   62POPC   C33 8266   6.386   4.316   5.047  0.3756 -0.1140 -0.2224
   62POPC   H3X 8267   6.417   4.236   5.118 -0.5061  0.2885  0.6371
   62POPC   H3Y 8268   6.463   4.330   4.968  1.3125 -1.2313  0.4639
   62POPC   C34 8269   6.251   4.272   4.983  0.0913  1.0379  0.2234
   62POPC   H4X 8270   6.184   4.360   4.993 -0.5450  0.4464  1.4911
   62POPC   H4Y 8271   6.218   4.188   5.048  1.5128  1.2346  1.2791
   62POPC   C35 8272   6.252   4.200   4.843 -0.6014 -0.1254 -0.7280
   62POPC   H5X 8273   6.294   4.098   4.852 -0.5537  0.0552  1.6061
   62POPC   H5Y 8274   6.310   4.270   4.778  2.0668 -1.6477 -0.1228
   62POPC   C36 8275   6.111   4.186   4.785  0.0437 -0.2310 -0.1153
   62POPC   H6X 8276   6.036   4.164   4.863  0.0563  2.3679  0.7143
   62POPC   H6Y 8277   6.114   4.092   4.726  1.0987 -0.2801 -0.0002
   62POPC   C37 8278   6.069   4.310   4.708 -0.1495 -0.1726 -0.5519
   62POPC   H7X 8279   6.125   4.340   4.616  1.1610 -1.5266 -0.2357
   62POPC   H7Y 8280   6.071   4.397   4.777 -0.5772  0.4150 -1.2661
   62POPC   C38 8281   5.927   4.289   4.655  1.4604  0.4363 -0.2113
   62POPC   H8X 8282   5.861   4.230   4.722  2.1059 -0.0410  0.0127
   62POPC   H8Y 8283   5.929   4.215   4.572  0.6192  1.5766 -1.3031
   62POPC   C39 8284   5.857   4.424   4.608  0.0127  0.0340  0.5340
   62POPC   H9X 8285   5.915   4.467   4.524 -1.9014  0.6106 -0.5757
   62POPC   H9Y 8286   5.846   4.500   4.689 -0.1239  1.0213 -0.3855
   62POPC  C310 8287   5.708   4.398   4.574  0.2470 -0.5333  0.9812
   62POPC  H10X 8288   5.660   4.337   4.653  1.4143 -1.4930  0.9645
   62POPC  H10Y 8289   5.709   4.347   4.475  1.9133  0.6231  0.3584
   62POPC  C311 8290   5.624   4.529   4.571  0.0043  0.0002  0.2660
   62POPC  H11X 8291   5.613   4.579   4.670 -0.6357  0.1236  0.1325
   62POPC  H11Y 8292   5.525   4.499   4.533 -0.0908 -1.1735  1.3716
   62POPC  C312 8293   5.682   4.626   4.479 -0.4213 -0.0338  0.1251
   62POPC  H12X 8294   5.695   4.572   4.383 -2.0119 -1.3819  0.6142
   62POPC  H12Y 8295   5.779   4.666   4.516 -1.4654  0.6002  2.3527
   62POPC  C313 8296   5.601   4.746   4.449 -0.0105  0.8644  0.4381
   62POPC  H13X 8297   5.500   4.714   4.415  1.5050 -3.3712 -0.6992
   62POPC  H13Y 8298   5.629   4.796   4.353  0.1074  2.0482  1.0648
   62POPC  C314 8299   5.595   4.860   4.556 -0.0566  0.1742 -0.8380
   62POPC  H14X 8300   5.558   4.816   4.651  0.6602  1.1052 -0.1126
   62POPC  H14Y 8301   5.505   4.921   4.531 -0.7551 -0.8671 -0.9307
   62POPC  C315 8302   5.732   4.925   4.600  0.5299  0.2436 -0.6142
   62POPC  H15X 8303   5.796   4.943   4.511  1.4168  0.2541  0.0211
   62POPC  H15Y 8304   5.786   4.848   4.658  0.2574 -0.6159 -1.4714
   62POPC  C316 8305   5.709   5.059   4.668 -0.6107  0.5401  0.2144
   62POPC  H16X 8306   5.666   5.132   4.596  1.3393  2.8238  1.2478
   62POPC  H16Y 8307   5.806   5.108   4.692  1.5837 -4.3853  2.8712
   62POPC  H16Z 8308   5.656   5.047   4.764 -1.7100 -1.7517 -0.5979
   63POPC     N 8309   5.003   0.471   5.747 -0.6239  0.8247  0.2919
   63POPC   C12 8310   5.038   0.543   5.625  0.2444 -0.5753  1.0950
   63POPC  H12A 8311   4.958   0.614   5.607  1.4960  0.2418 -1.9286
   63POPC  H12B 8312   5.042   0.478   5.539 -2.1597  0.9537 -0.3063
   63POPC   C13 8313   4.941   0.562   5.843 -0.0383 -0.1458  0.0719
   63POPC  H13A 8314   5.011   0.642   5.860 -2.1099  1.9856 -0.7642
   63POPC  H13B 8315   4.842   0.605   5.828 -0.2293 -0.5519  0.1482
   63POPC  H13C 8316   4.936   0.524   5.944  5.3606 -0.6620  0.4184
   63POPC   C14 8317   4.907   0.362   5.716 -0.3795  0.1306 -0.0814
   63POPC  H14A 8318   4.819   0.402   5.667  0.2309  0.5735 -0.8412
   63POPC  H14B 8319   4.943   0.283   5.652 -3.0326 -3.3746  2.3753
   63POPC  H14C 8320   4.887   0.306   5.806  1.0449 -1.6739 -0.8417
   63POPC   C15 8321   5.124   0.409   5.803  0.2609  0.0180  0.7396
   63POPC  H15A 8322   5.203   0.482   5.795 -1.5924  2.0101 -0.2233
   63POPC  H15B 8323   5.141   0.318   5.747  0.6035  1.0287 -0.8524
   63POPC  H15C 8324   5.096   0.402   5.907 -4.1726  2.3798 -0.0307
   63POPC   C11 8325   5.154   0.643   5.624 -0.0722 -0.0528  0.0205
   63POPC  H11A 8326   5.178   0.668   5.519  2.1712 -1.4072  0.1428
   63POPC  H11B 8327   5.246   0.594   5.663 -0.4929 -1.3791 -0.5812
   63POPC     P 8328   5.066   0.890   5.662 -0.1003  0.0577  0.1248
   63POPC   O13 8329   5.046   0.978   5.778 -0.2853 -0.2875  0.4350
   63POPC   O14 8330   4.948   0.861   5.576 -0.0138 -1.0307 -0.1997
   63POPC   O12 8331   5.122   0.755   5.713 -0.4668  0.0067  0.2032
   63POPC   O11 8332   5.187   0.941   5.578 -0.3281  0.5828  0.0958
   63POPC    C1 8333   5.159   0.983   5.440 -0.0560  0.2650  0.4686
   63POPC    HA 8334   5.215   1.078   5.422 -0.2579  0.2932 -0.0117
   63POPC    HB 8335   5.054   1.012   5.420 -0.4722  0.0241  2.1182
   63POPC    C2 8336   5.208   0.884   5.331 -0.7623 -0.4038  0.3644
   63POPC    HS 8337   5.154   0.788   5.346 -0.6011 -0.6690 -0.6954
   63POPC   O21 8338   5.347   0.869   5.352  0.5422  0.1479 -0.3116
   63POPC   C21 8339   5.397   0.751   5.326  0.3833 -0.7701 -0.8876
   63POPC   O22 8340   5.331   0.649   5.323 -0.2593  0.7945 -0.0231
   63POPC   C22 8341   5.547   0.752   5.326 -0.1084 -0.0816  0.3525
   63POPC   H2R 8342   5.576   0.646   5.343  1.6634  0.6211  1.9739
   63POPC   H2S 8343   5.588   0.817   5.406  2.9311 -0.4300 -0.7720
   63POPC    C3 8344   5.194   0.928   5.184  0.1838  0.3354 -0.5790
   63POPC    HX 8345   5.275   0.999   5.157  0.0211  1.0220  0.7036
   63POPC    HY 8346   5.097   0.982   5.179  1.1806  2.1391 -1.4435
   63POPC   O31 8347   5.203   0.822   5.084  0.0450  0.1221  0.7166
   63POPC   C31 8348   5.084   0.756   5.056 -0.0215 -0.4546  0.6936
   63POPC   O32 8349   4.981   0.788   5.107  0.0397  0.3063  0.0960
   63POPC   C32 8350   5.101   0.638   4.960 -0.0911 -0.6944  0.1650
   63POPC   H2X 8351   4.998   0.599   4.948 -0.6228  0.0946  1.8351
   63POPC   H2Y 8352   5.138   0.547   5.012 -2.7222 -1.7530  0.3086
   63POPC   C23 8353   5.598   0.792   5.179  0.9001 -0.2730  0.2631
   63POPC   H3R 8354   5.708   0.789   5.194  0.7147 -1.6564  1.5091
   63POPC   H3S 8355   5.575   0.897   5.150 -0.3247 -0.0604  1.8895
   63POPC   C24 8356   5.546   0.694   5.074 -1.2487  0.4888 -0.0842
   63POPC   H4R 8357   5.436   0.710   5.068 -1.1600  0.6095 -2.6310
   63POPC   H4S 8358   5.569   0.587   5.095 -0.3675  0.7324  0.2310
   63POPC   C25 8359   5.602   0.718   4.929  0.4434  0.4587 -0.2809
   63POPC   H5R 8360   5.591   0.825   4.900 -0.6767  0.1074 -1.1999
   63POPC   H5S 8361   5.544   0.662   4.853  2.4817 -1.1733 -0.6949
   63POPC   C26 8362   5.744   0.672   4.906 -0.6589  0.3037 -0.9698
   63POPC   H6R 8363   5.747   0.562   4.920  0.0514  0.0270 -2.9590
   63POPC   H6S 8364   5.820   0.701   4.982  1.8052 -0.0471 -3.1675
   63POPC   C27 8365   5.792   0.717   4.770 -1.0319  0.2256 -0.9309
   63POPC   H7R 8366   5.791   0.826   4.752 -1.1647  0.2847 -0.5563
   63POPC   H7S 8367   5.717   0.695   4.691 -0.5598 -1.2154 -1.0145
   63POPC   C28 8368   5.921   0.647   4.735 -0.0197  0.8630 -0.3632
   63POPC   H8R 8369   5.917   0.540   4.768  1.5517  1.2187  1.1620
   63POPC   H8S 8370   5.995   0.688   4.808 -1.3865  2.2956  0.2765
   63POPC   C29 8371   5.951   0.658   4.589 -0.6474 -0.4552  0.4286
   63POPC   H91 8372   5.949   0.763   4.558 -0.4727 -0.1101  1.5404
   63POPC  C210 8373   5.956   0.560   4.497 -0.1233 -1.1993 -0.4146
   63POPC  H101 8374   5.981   0.594   4.396 -2.2674  2.3397  0.0909
   63POPC  C211 8375   5.931   0.408   4.523 -0.6501 -0.0094  0.3928
   63POPC  H11R 8376   5.846   0.397   4.594 -2.1336 -0.4393 -1.3521
   63POPC  H11S 8377   6.020   0.356   4.564  0.4662  0.5931 -1.1802
   63POPC  C212 8378   5.885   0.320   4.400 -0.4522 -1.1918 -0.5962
   63POPC  H12R 8379   5.783   0.355   4.376 -0.1398  1.9264  1.8901
   63POPC  H12S 8380   5.880   0.213   4.428 -0.3987 -0.4197  2.7615
   63POPC  C213 8381   5.975   0.329   4.279 -0.9024  0.0738  0.7303
   63POPC  H13R 8382   6.079   0.296   4.298 -0.5535 -0.2470 -1.4335
   63POPC  H13S 8383   5.983   0.431   4.236  1.7574 -1.0119 -1.6783
   63POPC  C214 8384   5.916   0.251   4.159  0.5083 -0.3517 -0.0053
   63POPC  H14R 8385   5.860   0.163   4.199 -0.0827  0.9705  2.2328
   63POPC  H14S 8386   5.991   0.224   4.082  0.5265  0.9158 -0.4503
   63POPC  C215 8387   5.816   0.343   4.080 -0.0054  0.1519 -0.2744
   63POPC  H15R 8388   5.875   0.419   4.024  2.8626 -0.8895  1.1432
   63POPC  H15S 8389   5.742   0.385   4.151  0.0810 -3.0273  1.9049
   63POPC  C216 8390   5.722   0.262   3.983 -0.6548  0.2434  0.1430
   63POPC  H16R 8391   5.786   0.204   3.913 -0.8754  1.1962 -0.8854
   63POPC  H16S 8392   5.668   0.337   3.921 -2.0614 -0.1565  0.8656
   63POPC  C217 8393   5.621   0.180   4.059  0.6942 -0.2313  0.6758
   63POPC  H17R 8394   5.564   0.244   4.130  2.6034 -0.0011  2.0828
   63POPC  H17S 8395   5.670   0.099   4.116 -0.7466 -2.0261 -0.5274
   63POPC  C218 8396   5.525   0.104   3.969 -1.1293 -0.8936 -0.8715
   63POPC  H18R 8397   5.586   0.045   3.897 -1.0875  0.0188 -1.6021
   63POPC  H18S 8398   5.454   0.172   3.919 -0.8643 -1.0300 -1.4471
   63POPC  H18T 8399   5.457   0.041   4.030 -0.2641 -0.4120  0.6689
   63POPC   C33 8400   5.170   0.679   4.831  0.4917  0.5171 -0.6351
   63POPC   H3X 8401   5.159   0.592   4.763  0.8902 -0.2860  0.2989
   63POPC   H3Y 8402   5.280   0.691   4.839  0.7859 -1.4011 -1.0990
   63POPC   C34 8403   5.098   0.793   4.752 -0.1361 -0.0434 -0.7039
   63POPC   H4X 8404   5.125   0.891   4.797 -1.2909  0.4718 -1.0893
   63POPC   H4Y 8405   4.988   0.777   4.759  0.0284 -0.5155  2.0721
   63POPC   C35 8406   5.145   0.787   4.604  0.0386 -0.1174  0.9160
   63POPC   H5X 8407   5.113   0.692   4.556 -1.6766  1.1203 -0.5021
   63POPC   H5Y 8408   5.256   0.772   4.602 -0.0427 -0.6824 -0.3806
   63POPC   C36 8409   5.076   0.891   4.514  0.6252  1.3366  0.0281
   63POPC   H6X 8410   5.096   0.990   4.560  1.3540  1.0810  0.2724
   63POPC   H6Y 8411   4.968   0.867   4.522  0.9676 -0.2053  0.2793
   63POPC   C37 8412   5.125   0.887   4.367  0.0381 -0.8660  0.3324
   63POPC   H7X 8413   5.234   0.876   4.388  0.4150  2.3185  0.5889
   63POPC   H7Y 8414   5.106   0.986   4.319 -0.6907 -2.1647 -2.2162
   63POPC   C38 8415   5.077   0.765   4.284  0.8164 -0.1573 -1.1516
   63POPC   H8X 8416   4.975   0.788   4.249 -0.0044 -1.2934  0.3608
   63POPC   H8Y 8417   5.072   0.676   4.351 -4.1655  2.0961  2.0880
   63POPC   C39 8418   5.162   0.722   4.159 -0.1668  0.2087 -0.2262
   63POPC   H9X 8419   5.268   0.705   4.190 -0.5942 -1.2560  0.5365
   63POPC   H9Y 8420   5.163   0.809   4.090  2.3771  1.0859  0.7996
   63POPC  C310 8421   5.119   0.595   4.091  0.8836 -0.0664 -0.9297
   63POPC  H10X 8422   5.033   0.625   4.028  0.9509 -0.4344 -1.1966
   63POPC  H10Y 8423   5.081   0.517   4.160  2.4450 -1.2217 -1.3137
   63POPC  C311 8424   5.235   0.534   4.009  0.4416 -0.4284  0.0753
   63POPC  H11X 8425   5.300   0.470   4.074  0.3505 -0.3509  0.2448
   63POPC  H11Y 8426   5.303   0.618   3.985 -2.0902  1.3725 -1.1876
   63POPC  C312 8427   5.176   0.469   3.884 -0.4502  0.0896 -0.6926
   63POPC  H12X 8428   5.117   0.542   3.825 -2.0143 -0.4724  0.1088
   63POPC  H12Y 8429   5.112   0.383   3.915  3.3252 -2.5084  0.6840
   63POPC  C313 8430   5.282   0.408   3.795  0.4359 -0.3266 -1.0338
   63POPC  H13X 8431   5.224   0.348   3.721  2.1588 -0.0697 -2.6667
   63POPC  H13Y 8432   5.334   0.334   3.858 -3.4427 -0.8569  1.9574
   63POPC  C314 8433   5.383   0.501   3.743 -0.4892 -1.3613  0.0519
   63POPC  H14X 8434   5.426   0.550   3.832 -2.3514  0.2318  0.1563
   63POPC  H14Y 8435   5.337   0.575   3.674  0.5856 -0.3739  0.3719
   63POPC  C315 8436   5.502   0.440   3.662  0.0174 -0.3078  0.3511
   63POPC  H15X 8437   5.452   0.418   3.565 -2.6739 -1.7247  1.9285
   63POPC  H15Y 8438   5.530   0.348   3.717 -1.6944  0.4671  2.6578
   63POPC  C316 8439   5.619   0.532   3.647 -0.2598  0.1821 -0.3373
   63POPC  H16X 8440   5.665   0.565   3.742  1.3168  0.6329 -1.2186
   63POPC  H16Y 8441   5.598   0.622   3.585  0.7023  0.7193  0.0849
   63POPC  H16Z 8442   5.696   0.474   3.591 -1.3166 -1.8299  0.1922
   64POPC     N 8443   3.929   0.961   6.009 -0.3883  0.1803 -0.2006
   64POPC   C12 8444   3.990   1.003   5.873 -0.1569 -0.2853  0.6022
   64POPC  H12A 8445   3.912   0.993   5.799  1.1048 -0.7201 -0.7233
   64POPC  H12B 8446   4.070   0.942   5.833 -1.5276 -2.8168  1.5200
   64POPC   C13 8447   4.024   0.995   6.122  0.2035  0.7262  0.3605
   64POPC  H13A 8448   4.038   1.102   6.116  1.6600  0.5824  0.7791
   64POPC  H13B 8449   3.969   0.993   6.215 -2.8520  0.4750 -1.2965
   64POPC  H13C 8450   4.111   0.931   6.126 -0.3933 -0.1098  0.2464
   64POPC   C14 8451   3.801   1.037   6.029  0.3445 -0.3284  0.0971
   64POPC  H14A 8452   3.817   1.141   6.003  2.6026 -0.5475  0.3798
   64POPC  H14B 8453   3.726   0.988   5.969 -1.5663 -1.1400  2.9307
   64POPC  H14C 8454   3.753   1.018   6.124 -0.5818 -2.2902 -0.7216
   64POPC   C15 8455   3.896   0.813   6.002  0.2592 -0.2056  0.2929
   64POPC  H15A 8456   3.822   0.807   5.923  0.5618  1.1471 -0.1365
   64POPC  H15B 8457   3.848   0.778   6.091  1.6524 -0.3940  0.9979
   64POPC  H15C 8458   3.985   0.763   5.968  0.1407 -1.2130  1.4184
   64POPC   C11 8459   4.029   1.150   5.853  0.0382  0.2782 -0.3085
   64POPC  H11A 8460   3.936   1.207   5.875  0.2336  0.0103  1.3143
   64POPC  H11B 8461   4.049   1.158   5.744 -0.4544  1.3206 -0.3362
   64POPC     P 8462   4.147   1.345   5.984  0.1191  0.1213  0.4701
   64POPC   O13 8463   4.287   1.371   6.012 -0.8241 -0.3135  0.0693
   64POPC   O14 8464   4.045   1.332   6.086 -0.2305 -0.0292 -0.7166
   64POPC   O12 8465   4.139   1.197   5.922  0.1465 -0.6671 -0.5187
   64POPC   O11 8466   4.096   1.446   5.874  0.4507  0.0462 -0.0188
   64POPC    C1 8467   4.187   1.532   5.808  0.0206 -0.8440  0.1205
   64POPC    HA 8468   4.293   1.500   5.817  0.1084 -0.6105 -0.0568
   64POPC    HB 8469   4.181   1.629   5.862 -1.0837 -0.3279 -0.8737
   64POPC    C2 8470   4.144   1.543   5.661 -0.5800  0.8313 -0.1187
   64POPC    HS 8471   4.041   1.583   5.672 -0.6826  0.0580  2.4003
   64POPC   O21 8472   4.133   1.412   5.599  0.6166  0.1543 -0.0984
   64POPC   C21 8473   4.230   1.331   5.592 -0.7351 -0.2829 -0.3116
   64POPC   O22 8474   4.344   1.352   5.637  0.2091  0.0696  0.1478
   64POPC   C22 8475   4.199   1.201   5.517  0.2513 -0.0028  0.2187
   64POPC   H2R 8476   4.089   1.189   5.524  0.0433  1.4583 -0.2625
   64POPC   H2S 8477   4.247   1.118   5.573 -0.6361 -1.1914 -0.7088
   64POPC    C3 8478   4.236   1.639   5.588 -1.2629 -0.0576  0.1818
   64POPC    HX 8479   4.337   1.604   5.618 -0.6319  1.8716  0.4558
   64POPC    HY 8480   4.237   1.742   5.628  0.2916  0.5654 -1.3481
   64POPC   O31 8481   4.230   1.639   5.443 -0.3228 -0.0052  0.1818
   64POPC   C31 8482   4.147   1.722   5.382 -0.2250  0.2042  0.5826
   64POPC   O32 8483   4.069   1.799   5.435 -0.6646  0.3534 -0.4448
   64POPC   C32 8484   4.167   1.701   5.229  0.2025  0.6530  0.2569
   64POPC   H2X 8485   4.224   1.607   5.212 -1.8358 -0.4790 -0.8320
   64POPC   H2Y 8486   4.225   1.790   5.197  1.2354  0.4871  1.5614
   64POPC   C23 8487   4.255   1.198   5.368 -0.0554  0.1561 -0.3587
   64POPC   H3R 8488   4.239   1.096   5.326  0.6926  0.3061 -1.0424
   64POPC   H3S 8489   4.366   1.204   5.364 -0.1629  3.9977 -2.4423
   64POPC   C24 8490   4.182   1.280   5.258  0.2210  0.1663  0.4838
   64POPC   H4R 8491   4.180   1.387   5.285  0.5909 -0.2948  2.5090
   64POPC   H4S 8492   4.080   1.237   5.251  0.9997 -1.8505  0.7227
   64POPC   C25 8493   4.248   1.263   5.127 -0.3370  0.6223  0.0606
   64POPC   H5R 8494   4.262   1.155   5.104  1.6303  1.1623 -1.4296
   64POPC   H5S 8495   4.345   1.316   5.123  0.1299 -0.1399  0.8174
   64POPC   C26 8496   4.159   1.325   5.023  0.3982 -0.0476  0.2884
   64POPC   H6R 8497   4.124   1.427   5.049 -0.4422 -0.0915 -0.6239
   64POPC   H6S 8498   4.079   1.249   5.014  0.7151 -0.4484  0.7999
   64POPC   C27 8499   4.208   1.328   4.878 -0.1080 -0.3799 -0.3534
   64POPC   H7R 8500   4.315   1.357   4.875 -0.2863  0.2342 -1.2073
   64POPC   H7S 8501   4.143   1.404   4.829 -0.8699 -1.0677 -0.4299
   64POPC   C28 8502   4.197   1.193   4.810 -0.1932  0.5477 -0.3894
   64POPC   H8R 8503   4.100   1.143   4.832  1.0918 -2.6407 -1.3465
   64POPC   H8S 8504   4.274   1.128   4.857 -1.8941 -1.8742 -0.7478
   64POPC   C29 8505   4.211   1.207   4.654  0.4490 -0.1095  0.2046
   64POPC   H91 8506   4.127   1.242   4.592  2.2577  0.7705 -1.8862
   64POPC  C210 8507   4.325   1.183   4.588  0.9059 -1.2049  0.4380
   64POPC  H101 8508   4.332   1.196   4.479 -2.1377  0.2449  0.2972
   64POPC  C211 8509   4.449   1.145   4.651 -0.0821  0.3483  0.5577
   64POPC  H11R 8510   4.436   1.065   4.727 -1.2517  0.8206  0.8668
   64POPC  H11S 8511   4.496   1.235   4.695  1.2318  0.4356 -0.9025
   64POPC  C212 8512   4.536   1.091   4.539 -0.3636 -0.3363 -0.1424
   64POPC  H12R 8513   4.641   1.074   4.568 -0.6547 -0.2244  1.0218
   64POPC  H12S 8514   4.546   1.155   4.449 -0.6718  0.8052  0.6097
   64POPC  C213 8515   4.489   0.961   4.485 -0.2207  0.4375 -0.7383
   64POPC  H13R 8516   4.383   0.957   4.453 -0.7138 -1.0625  0.9335
   64POPC  H13S 8517   4.500   0.886   4.566 -0.7371 -0.5580 -1.5665
   64POPC  C214 8518   4.578   0.903   4.380  0.0211 -0.6152  0.1411
   64POPC  H14R 8519   4.677   0.888   4.428  0.3985  0.0431 -0.4096
   64POPC  H14S 8520   4.587   0.984   4.304 -0.6080 -0.0171  0.6911
   64POPC  C215 8521   4.516   0.778   4.320  0.4517 -0.6376  0.8171
   64POPC  H15R 8522   4.418   0.809   4.279 -0.0481  0.5217  2.7880
   64POPC  H15S 8523   4.497   0.713   4.407 -0.9334 -0.3902  0.7231
   64POPC  C216 8524   4.608   0.706   4.220 -0.7469  0.6666 -0.1749
   64POPC  H16R 8525   4.552   0.614   4.192 -1.4491  1.5363 -1.8084
   64POPC  H16S 8526   4.700   0.674   4.272  0.2451  2.7161 -0.5552
   64POPC  C217 8527   4.643   0.791   4.098 -0.0907  0.0388  0.7006
   64POPC  H17R 8528   4.700   0.728   4.025 -1.2101  0.4291 -0.5465
   64POPC  H17S 8529   4.713   0.873   4.123  3.4074 -1.6731 -2.3396
   64POPC  C218 8530   4.519   0.838   4.025  0.5096  0.4200 -0.1996
   64POPC  H18R 8531   4.464   0.913   4.086 -1.6212 -0.1833 -1.2722
   64POPC  H18S 8532   4.455   0.750   4.004  2.8840 -1.3347 -0.5766
   64POPC  H18T 8533   4.540   0.887   3.928 -0.9350 -0.9269 -1.2364
   64POPC   C33 8534   4.033   1.691   5.143 -0.2390  0.3596 -0.2897
   64POPC   H3X 8535   3.962   1.642   5.212  1.9075 -1.7900  0.5435
   64POPC   H3Y 8536   4.052   1.627   5.054  0.8167 -0.1633  0.2911
   64POPC   C34 8537   3.980   1.825   5.109 -0.4230  0.8893  0.1640
   64POPC   H4X 8538   4.054   1.880   5.047  0.8861 -0.8552  0.1081
   64POPC   H4Y 8539   3.957   1.881   5.202  0.2054  0.4909  0.5678
   64POPC   C35 8540   3.845   1.817   5.028 -0.8581 -0.5361 -0.1070
   64POPC   H5X 8541   3.807   1.920   5.014  0.5698  0.4850  2.6780
   64POPC   H5Y 8542   3.772   1.756   5.087  1.1717 -1.7340  1.3329
   64POPC   C36 8543   3.858   1.761   4.889 -0.0896 -0.0399  0.0157
   64POPC   H6X 8544   3.935   1.681   4.896 -1.0553 -0.9270  0.7929
   64POPC   H6Y 8545   3.904   1.839   4.824  0.9164  0.6680  1.5331
   64POPC   C37 8546   3.729   1.726   4.819 -0.3875 -0.1888 -0.0171
   64POPC   H7X 8547   3.678   1.824   4.804  0.7957  0.5203  0.4140
   64POPC   H7Y 8548   3.679   1.658   4.891 -0.6779 -1.1419 -1.0954
   64POPC   C38 8549   3.752   1.655   4.682  0.9584  0.2753  0.3639
   64POPC   H8X 8550   3.802   1.721   4.607 -1.8413  1.2088 -0.7968
   64POPC   H8Y 8551   3.651   1.656   4.637  0.1651  1.0870  2.0400
   64POPC   C39 8552   3.818   1.517   4.668 -0.1344  0.1192  0.5436
   64POPC   H9X 8553   3.777   1.448   4.744  1.8974 -0.1362  1.4512
   64POPC   H9Y 8554   3.924   1.534   4.695  0.7025  1.1016 -2.8570
   64POPC  C310 8555   3.815   1.475   4.521 -0.7507  0.1698  0.0527
   64POPC  H10X 8556   3.844   1.557   4.452 -0.1198 -0.7361 -0.7842
   64POPC  H10Y 8557   3.712   1.457   4.481 -1.0507  1.1646  0.3463
   64POPC  C311 8558   3.895   1.346   4.484  0.3620 -0.0777 -0.8002
   64POPC  H11X 8559   3.876   1.266   4.559  3.0613  0.5020  0.6334
   64POPC  H11Y 8560   4.004   1.368   4.488  0.5135 -0.9121  0.7900
   64POPC  C312 8561   3.850   1.291   4.347 -0.2064  0.2044 -0.4970
   64POPC  H12X 8562   3.850   1.387   4.291  1.3070 -0.0850 -1.0284
   64POPC  H12Y 8563   3.742   1.263   4.351 -0.8105  2.4219  1.5522
   64POPC  C313 8564   3.962   1.202   4.272 -0.2163 -0.0479  0.9387
   64POPC  H13X 8565   4.059   1.239   4.312 -0.2933  0.6411  0.5043
   64POPC  H13Y 8566   3.963   1.240   4.168 -0.3888  0.4833  1.1278
   64POPC  C314 8567   3.930   1.054   4.293  0.7318  0.1200 -0.3644
   64POPC  H14X 8568   3.997   0.999   4.223 -1.4337 -0.8345 -1.7943
   64POPC  H14Y 8569   3.823   1.036   4.269  0.9038 -0.1776 -0.9307
   64POPC  C315 8570   3.974   1.011   4.433  0.2265 -1.5629 -0.1263
   64POPC  H15X 8571   3.900   1.057   4.501  0.2773  1.3674 -1.9028
   64POPC  H15Y 8572   4.073   1.058   4.451  0.1839 -1.7943  0.7915
   64POPC  C316 8573   3.990   0.864   4.462 -0.3742  0.0757 -0.8161
   64POPC  H16X 8574   4.083   0.819   4.419 -0.1203  0.2707 -0.4766
   64POPC  H16Y 8575   3.908   0.815   4.406 -0.2817 -1.1868  0.0996
   64POPC  H16Z 8576   3.978   0.846   4.571  3.0365  3.0933  0.2485
   65POPC     N 8577   5.680   1.495   6.077  0.1289  0.9955 -0.8723
   65POPC   C12 8578   5.678   1.640   6.030  0.0199  0.2089  0.0412
   65POPC  H12A 8579   5.588   1.688   6.067 -0.3660  0.7190 -1.5104
   65POPC  H12B 8580   5.669   1.639   5.923 -0.4227  0.8617  0.0648
   65POPC   C13 8581   5.545   1.431   6.093  0.2188  0.0270  0.0806
   65POPC  H13A 8582   5.561   1.328   6.120  1.6992 -0.0741 -1.0511
   65POPC  H13B 8583   5.487   1.486   6.166 -1.0461  4.6598 -3.8829
   65POPC  H13C 8584   5.499   1.429   5.995  1.0888  2.2019 -0.4274
   65POPC   C14 8585   5.750   1.413   5.979 -0.3513  0.9234 -0.1509
   65POPC  H14A 8586   5.853   1.443   5.967 -0.0402  0.0673  0.2681
   65POPC  H14B 8587   5.761   1.308   6.003  0.8278  0.9255 -0.6287
   65POPC  H14C 8588   5.701   1.423   5.884  1.2395  1.4221 -0.9420
   65POPC   C15 8589   5.758   1.471   6.200 -0.3953  0.8721  0.0849
   65POPC  H15A 8590   5.732   1.370   6.231  0.7143 -0.1131 -2.0255
   65POPC  H15B 8591   5.726   1.540   6.277 -0.6794 -0.8175  1.5734
   65POPC  H15C 8592   5.862   1.499   6.197  0.0268 -0.4169  1.4577
   65POPC   C11 8593   5.809   1.728   6.063 -0.3135  0.4703  0.8925
   65POPC  H11A 8594   5.794   1.758   6.169 -0.6630  1.3195  0.6069
   65POPC  H11B 8595   5.809   1.814   5.993 -1.5965 -0.8034 -0.7762
   65POPC     P 8596   6.057   1.695   5.972  0.0968 -0.0597 -0.1366
   65POPC   O13 8597   6.116   1.568   5.919  0.5066 -0.6199 -0.0595
   65POPC   O14 8598   6.142   1.796   6.040  0.5446  0.2670 -0.0647
   65POPC   O12 8599   5.933   1.654   6.062  0.4022  0.0163 -0.0816
   65POPC   O11 8600   5.977   1.767   5.844 -0.1563 -0.4444 -0.3834
   65POPC    C1 8601   5.901   1.680   5.758  0.0601  0.1816 -0.3942
   65POPC    HA 8602   5.808   1.736   5.734 -0.0692 -0.0645 -0.4666
   65POPC    HB 8603   5.873   1.584   5.806  0.3865  0.6270  0.7219
   65POPC    C2 8604   5.976   1.659   5.623 -0.0631  0.0007 -0.7759
   65POPC    HS 8605   6.079   1.626   5.646 -0.9329 -2.0406  0.3902
   65POPC   O21 8606   5.968   1.785   5.546  0.3537  0.2988 -0.3772
   65POPC   C21 8607   6.059   1.808   5.459  0.1797  0.2846 -0.8141
   65POPC   O22 8608   6.162   1.740   5.447  0.0309  0.1148  0.2629
   65POPC   C22 8609   6.007   1.931   5.371  0.7870  0.0745 -0.2640
   65POPC   H2R 8610   5.955   1.993   5.446  0.6436 -1.4074  0.9140
   65POPC   H2S 8611   5.925   1.889   5.309  1.0169 -1.3456  0.3430
   65POPC    C3 8612   5.909   1.543   5.540  0.0729 -1.0152  0.6894
   65POPC    HX 8613   5.811   1.582   5.505  1.0275  2.2045  1.2627
   65POPC    HY 8614   5.885   1.455   5.604  0.5999 -0.7709  1.2299
   65POPC   O31 8615   5.986   1.504   5.429 -0.5759 -0.5510  0.1130
   65POPC   C31 8616   5.997   1.382   5.407 -0.1580  0.4878 -0.2807
   65POPC   O32 8617   5.963   1.290   5.482  0.1706  0.4983 -0.1272
   65POPC   C32 8618   6.084   1.368   5.285  0.3060  0.0099 -0.4378
   65POPC   H2X 8619   6.181   1.412   5.318  0.0933 -1.2296  2.1686
   65POPC   H2Y 8620   6.050   1.422   5.195  2.1396 -0.4484 -1.4495
   65POPC   C23 8621   6.122   1.999   5.295 -0.2483  0.1050  0.1293
   65POPC   H3R 8622   6.154   1.941   5.205  1.1345 -1.5813  1.6208
   65POPC   H3S 8623   6.207   1.996   5.367  1.1993 -1.7171 -1.5156
   65POPC   C24 8624   6.085   2.141   5.245 -0.0541 -0.2725  0.2661
   65POPC   H4R 8625   6.098   2.209   5.331 -1.7036 -0.4997  0.7361
   65POPC   H4S 8626   5.974   2.137   5.244 -0.1092  0.9923  0.5562
   65POPC   C25 8627   6.163   2.200   5.119  0.0335  0.7093 -0.7804
   65POPC   H5R 8628   6.272   2.187   5.132 -0.3669 -2.4708  0.3265
   65POPC   H5S 8629   6.125   2.304   5.112  0.5015  0.8886 -0.6504
   65POPC   C26 8630   6.120   2.117   4.987 -0.0672 -0.1719 -0.2348
   65POPC   H6R 8631   6.010   2.112   4.976 -0.0301 -0.3800 -0.5251
   65POPC   H6S 8632   6.146   2.009   4.989 -2.3402 -0.7691  1.8509
   65POPC   C27 8633   6.180   2.171   4.860 -0.0501  0.5752 -0.0857
   65POPC   H7R 8634   6.289   2.157   4.872  0.1544 -1.0931 -2.9664
   65POPC   H7S 8635   6.150   2.276   4.841  1.6086  1.5679  2.3241
   65POPC   C28 8636   6.147   2.088   4.730  0.4974 -0.3189 -0.6803
   65POPC   H8R 8637   6.037   2.103   4.717  0.7164  2.7910  0.3103
   65POPC   H8S 8638   6.172   1.981   4.748  1.0378 -0.1671 -0.5147
   65POPC   C29 8639   6.240   2.133   4.622  0.3360  0.1767  0.4413
   65POPC   H91 8640   6.222   2.237   4.591  1.5778  0.6387  1.1830
   65POPC  C210 8641   6.339   2.070   4.561  0.1838 -0.4585 -0.3407
   65POPC  H101 8642   6.378   2.130   4.478 -1.5955  1.0531 -0.1452
   65POPC  C211 8643   6.392   1.930   4.574 -0.1695  0.1624  0.5407
   65POPC  H11R 8644   6.477   1.921   4.504 -0.4065  3.2944 -0.2898
   65POPC  H11S 8645   6.308   1.861   4.552 -0.6228  1.0364 -0.5734
   65POPC  C212 8646   6.454   1.894   4.709 -0.1861  0.2014 -0.2465
   65POPC  H12R 8647   6.504   1.797   4.690 -1.6735 -1.2161  2.5083
   65POPC  H12S 8648   6.383   1.878   4.793  2.2840  0.8646  2.1279
   65POPC  C213 8649   6.562   1.992   4.742 -0.8662 -0.5794 -0.3788
   65POPC  H13R 8650   6.509   2.088   4.753  0.2298 -0.1071  0.9609
   65POPC  H13S 8651   6.638   1.997   4.660 -1.4384  0.6977 -0.8508
   65POPC  C214 8652   6.627   1.980   4.882  0.0393  0.2173 -0.1258
   65POPC  H14R 8653   6.700   1.898   4.866 -0.4623  0.0864 -2.0097
   65POPC  H14S 8654   6.545   1.940   4.945  2.4009 -1.2431  2.2265
   65POPC  C215 8655   6.692   2.102   4.935 -0.1882  0.2511 -0.2862
   65POPC  H15R 8656   6.736   2.150   4.845 -0.2268 -1.9586 -1.5769
   65POPC  H15S 8657   6.780   2.067   4.994 -0.5453  0.7660  0.5695
   65POPC  C216 8658   6.601   2.183   5.029 -0.3941  0.4695  0.6147
   65POPC  H16R 8659   6.557   2.121   5.110 -2.6422 -0.2162 -1.0607
   65POPC  H16S 8660   6.512   2.221   4.974 -1.2656 -0.8904  1.0435
   65POPC  C217 8661   6.664   2.315   5.064 -0.0320 -0.2271 -1.0466
   65POPC  H17R 8662   6.591   2.391   5.098  1.6097  0.2726  1.6916
   65POPC  H17S 8663   6.717   2.355   4.974  0.5999  0.0934 -0.5460
   65POPC  C218 8664   6.772   2.300   5.172  0.1713  0.6906  0.2556
   65POPC  H18R 8665   6.860   2.245   5.132  0.3109  0.1458  1.2739
   65POPC  H18S 8666   6.731   2.252   5.264  1.3462 -1.3107 -0.1980
   65POPC  H18T 8667   6.813   2.401   5.192  0.7770  1.0614 -2.4381
   65POPC   C33 8668   6.104   1.218   5.242  0.1041 -0.1259 -0.2638
   65POPC   H3X 8669   6.112   1.159   5.335 -1.9568  1.8442  1.2434
   65POPC   H3Y 8670   6.199   1.213   5.184 -0.4883 -1.7315 -1.1658
   65POPC   C34 8671   5.986   1.158   5.164  0.8020  0.2048 -0.5470
   65POPC   H4X 8672   5.896   1.183   5.224 -0.1481 -0.1344 -1.7952
   65POPC   H4Y 8673   5.993   1.047   5.158 -2.1601 -0.0513 -0.4066
   65POPC   C35 8674   5.968   1.202   5.019  0.2306  0.4189  0.0626
   65POPC   H5X 8675   6.063   1.207   4.962  0.1889  0.5765  0.0071
   65POPC   H5Y 8676   5.926   1.305   5.013 -0.4910  0.1107 -0.2586
   65POPC   C36 8677   5.861   1.127   4.941 -0.4606  0.3783  0.6277
   65POPC   H6X 8678   5.761   1.146   4.987 -0.7941 -2.0261  0.9863
   65POPC   H6Y 8679   5.886   1.020   4.952  1.8821  1.0395  2.6997
   65POPC   C37 8680   5.860   1.159   4.788 -0.1056 -0.3586 -0.1396
   65POPC   H7X 8681   5.794   1.083   4.742 -0.5497 -0.3940  0.5433
   65POPC   H7Y 8682   5.964   1.155   4.748  0.5117  1.0988  1.1882
   65POPC   C38 8683   5.804   1.301   4.754  0.1061  0.1165  0.3338
   65POPC   H8X 8684   5.793   1.295   4.644 -2.0950 -1.8539  0.5625
   65POPC   H8Y 8685   5.870   1.382   4.791  2.4742 -1.1785 -0.8712
   65POPC   C39 8686   5.655   1.322   4.807  0.5948  0.1666  0.1641
   65POPC   H9X 8687   5.648   1.318   4.918  0.7051 -0.8199  0.1443
   65POPC   H9Y 8688   5.596   1.233   4.778 -0.7576  1.0373  0.1841
   65POPC  C310 8689   5.601   1.465   4.764  0.1793 -0.4308 -0.0147
   65POPC  H10X 8690   5.663   1.542   4.814  1.1036 -1.7438  0.9432
   65POPC  H10Y 8691   5.502   1.468   4.815 -0.8923 -0.6825 -1.9810
   65POPC  C311 8692   5.595   1.477   4.605 -0.0040 -0.9062  0.3159
   65POPC  H11X 8693   5.555   1.383   4.561 -0.4373 -1.2202  1.3488
   65POPC  H11Y 8694   5.700   1.473   4.569 -0.2410 -1.7012 -0.3272
   65POPC  C312 8695   5.524   1.606   4.556  0.0167  0.9529 -0.0228
   65POPC  H12X 8696   5.549   1.619   4.449  0.8369  1.1915  0.1948
   65POPC  H12Y 8697   5.552   1.692   4.621  0.0649  0.7076  0.2787
   65POPC  C313 8698   5.370   1.602   4.568 -0.7669  0.6580 -0.2812
   65POPC  H13X 8699   5.345   1.567   4.671 -1.1080 -4.7121 -1.9089
   65POPC  H13Y 8700   5.338   1.516   4.506 -0.7239  0.1480  0.3845
   65POPC  C314 8701   5.306   1.738   4.528 -0.6548  0.1922  0.0812
   65POPC  H14X 8702   5.336   1.759   4.423  0.4331  1.3107  0.5918
   65POPC  H14Y 8703   5.353   1.813   4.595 -0.0600  1.0617 -1.2662
   65POPC  C315 8704   5.153   1.733   4.535  0.1026 -0.3592 -0.5989
   65POPC  H15X 8705   5.100   1.658   4.473  0.6984  0.0197 -1.5950
   65POPC  H15Y 8706   5.117   1.836   4.514 -0.9122 -0.4262  0.7170
   65POPC  C316 8707   5.114   1.694   4.681  0.5737 -0.1323  0.6541
   65POPC  H16X 8708   5.014   1.742   4.687  0.3881  0.1608 -2.7784
   65POPC  H16Y 8709   5.181   1.742   4.755 -0.6994 -1.2858  2.6403
   65POPC  H16Z 8710   5.106   1.584   4.691  1.0563 -0.3722 -1.2323
   66POPC     N 8711   6.920   2.728   6.174  0.6496 -0.1785 -0.2659
   66POPC   C12 8712   7.001   2.834   6.110  0.9114  0.2129  0.0232
   66POPC  H12A 8713   7.106   2.811   6.112  0.6851 -0.9190  2.4739
   66POPC  H12B 8714   6.988   2.922   6.173 -0.6425  0.1958 -0.2366
   66POPC   C13 8715   6.770   2.764   6.159 -0.0974  0.2379 -0.3282
   66POPC  H13A 8716   6.710   2.697   6.219  0.5110 -1.1424 -1.2226
   66POPC  H13B 8717   6.737   2.859   6.198  0.4573 -0.4406  1.9266
   66POPC  H13C 8718   6.729   2.748   6.060 -0.1487  0.7243 -0.3883
   66POPC   C14 8719   6.937   2.590   6.119  0.7770 -0.2096  0.7848
   66POPC  H14A 8720   6.863   2.522   6.160  2.2777 -2.5068 -0.1277
   66POPC  H14B 8721   6.924   2.585   6.012  0.4145 -2.5858  0.8716
   66POPC  H14C 8722   7.034   2.549   6.143  1.2637  0.7521  0.5018
   66POPC   C15 8723   6.942   2.725   6.326 -0.6030  0.5392  0.2725
   66POPC  H15A 8724   6.892   2.642   6.374 -0.5907  0.2282 -0.2391
   66POPC  H15B 8725   6.902   2.811   6.378 -0.9142  0.0898  0.7886
   66POPC  H15C 8726   7.049   2.715   6.339 -0.5422  1.6306  0.6687
   66POPC   C11 8727   6.961   2.869   5.968  0.7429  0.2110  0.2696
   66POPC  H11A 8728   7.033   2.942   5.925 -0.0125  1.1060  0.4892
   66POPC  H11B 8729   6.864   2.924   5.976 -0.5178 -1.8004 -0.6214
   66POPC     P 8730   6.821   2.729   5.789  0.2287 -0.0833 -0.4873
   66POPC   O13 8731   6.699   2.717   5.871  0.3745 -0.5742  0.5859
   66POPC   O14 8732   6.849   2.607   5.711  0.1386 -0.0807 -0.2369
   66POPC   O12 8733   6.949   2.758   5.877 -0.2819 -0.7078  0.3783
   66POPC   O11 8734   6.802   2.852   5.692 -0.3171  0.4882 -0.1982
   66POPC    C1 8735   6.906   2.928   5.635 -0.4345  0.1444 -0.5466
   66POPC    HA 8736   6.954   2.856   5.565 -2.3398 -3.3749  1.4906
   66POPC    HB 8737   6.971   2.978   5.710 -0.1839  0.6550 -1.0995
   66POPC    C2 8738   6.855   3.052   5.550 -0.1684 -0.1271  0.6551
   66POPC    HS 8739   6.797   3.130   5.604 -0.3625  0.2775 -0.1192
   66POPC   O21 8740   6.765   2.998   5.449 -0.5909  0.0646 -0.1131
   66POPC   C21 8741   6.634   2.997   5.469  0.0696  0.2466 -0.2355
   66POPC   O22 8742   6.580   3.035   5.573 -0.2033  0.0090  0.0053
   66POPC   C22 8743   6.567   2.924   5.356  0.1786 -0.1038  1.1359
   66POPC   H2R 8744   6.629   2.842   5.315  0.2257  0.4446  0.0741
   66POPC   H2S 8745   6.553   2.997   5.273  1.2156 -2.5822 -1.3870
   66POPC    C3 8746   6.971   3.123   5.475  0.2409 -0.0796 -0.1504
   66POPC    HX 8747   7.035   3.172   5.551 -1.5179  0.0872  1.2862
   66POPC    HY 8748   6.924   3.210   5.424 -0.3266  1.3696  2.6276
   66POPC   O31 8749   7.040   3.035   5.387 -0.1217  0.0504 -0.3169
   66POPC   C31 8750   7.125   3.100   5.305 -1.0974 -0.3550  0.5959
   66POPC   O32 8751   7.148   3.217   5.320 -0.4176  0.4876 -0.4901
   66POPC   C32 8752   7.196   2.999   5.212  0.4961 -0.2624 -0.8778
   66POPC   H2X 8753   7.127   2.922   5.172  0.3196 -0.2573 -0.5848
   66POPC   H2Y 8754   7.272   2.948   5.275 -0.8992 -0.5126  0.6509
   66POPC   C23 8755   6.424   2.877   5.400 -0.1928 -0.4999  0.5243
   66POPC   H3R 8756   6.385   2.972   5.443  0.1007  1.2308 -2.7286
   66POPC   H3S 8757   6.430   2.801   5.481  1.9117 -2.9475 -1.7546
   66POPC   C24 8758   6.332   2.823   5.291 -0.2594 -0.5723 -0.3265
   66POPC   H4R 8759   6.360   2.862   5.190 -0.1001  1.1541  0.3492
   66POPC   H4S 8760   6.228   2.852   5.315  0.3188  1.2652  0.0962
   66POPC   C25 8761   6.342   2.674   5.287  0.1245  0.2012 -0.2803
   66POPC   H5R 8762   6.295   2.636   5.380 -2.2433 -0.1801 -1.5608
   66POPC   H5S 8763   6.449   2.641   5.289 -0.4101 -1.6132  0.2854
   66POPC   C26 8764   6.269   2.601   5.176  0.0017  0.0396 -0.9086
   66POPC   H6R 8765   6.159   2.619   5.180 -0.0628 -0.4559 -0.3088
   66POPC   H6S 8766   6.287   2.491   5.169 -0.6201 -0.0171 -1.7424
   66POPC   C27 8767   6.322   2.648   5.041  0.0123  0.2084 -0.2527
   66POPC   H7R 8768   6.432   2.638   5.051  0.0312  0.1679 -0.4754
   66POPC   H7S 8769   6.292   2.753   5.023 -0.2396  0.0617 -0.7321
   66POPC   C28 8770   6.269   2.563   4.922 -0.3298 -0.4670 -0.3169
   66POPC   H8R 8771   6.283   2.456   4.950  0.7673  0.1579  1.7265
   66POPC   H8S 8772   6.332   2.581   4.833 -0.7900  0.5222 -0.4559
   66POPC   C29 8773   6.127   2.588   4.870 -0.2026  0.4615  0.0608
   66POPC   H91 8774   6.048   2.611   4.943  0.8160 -0.8489  1.6506
   66POPC  C210 8775   6.093   2.586   4.740  0.3297 -0.1546  0.1261
   66POPC  H101 8776   5.987   2.595   4.710  0.4657 -1.8886 -1.0612
   66POPC  C211 8777   6.185   2.561   4.623  0.2512 -0.1973  0.0050
   66POPC  H11R 8778   6.253   2.477   4.646  0.5563 -0.5194 -1.8970
   66POPC  H11S 8779   6.248   2.652   4.613  1.2316 -0.6815  1.6237
   66POPC  C212 8780   6.105   2.525   4.487 -0.2379  0.4418  0.0785
   66POPC  H12R 8781   6.030   2.605   4.471  1.5573  2.1299 -0.3419
   66POPC  H12S 8782   6.058   2.425   4.501 -0.6581  0.5025 -0.8732
   66POPC  C213 8783   6.191   2.523   4.360  0.0663 -0.3375  0.2486
   66POPC  H13R 8784   6.282   2.464   4.385  0.3614 -0.2166 -0.5268
   66POPC  H13S 8785   6.233   2.623   4.336  1.4300 -1.1809 -1.0754
   66POPC  C214 8786   6.133   2.467   4.236 -0.1733  0.0456  0.4618
   66POPC  H14R 8787   6.047   2.531   4.206 -0.1636 -0.4826 -0.7537
   66POPC  H14S 8788   6.096   2.364   4.252  0.9367 -0.7262 -1.6123
   66POPC  C215 8789   6.223   2.476   4.116 -0.1892 -0.2820  0.2167
   66POPC  H15R 8790   6.178   2.415   4.034  0.4807 -0.8891  0.2910
   66POPC  H15S 8791   6.319   2.428   4.143 -0.8035 -1.1759  0.8817
   66POPC  C216 8792   6.251   2.622   4.071  0.0134 -0.0934  0.0450
   66POPC  H16R 8793   6.320   2.668   4.145  0.5443 -2.7514  1.3221
   66POPC  H16S 8794   6.155   2.678   4.076  0.9874  1.6074  0.1568
   66POPC  C217 8795   6.313   2.628   3.930 -0.4344  0.3134  0.1940
   66POPC  H17R 8796   6.234   2.588   3.864 -1.4551  1.2052  0.8457
   66POPC  H17S 8797   6.408   2.570   3.922 -0.7652 -0.0423 -1.7845
   66POPC  C218 8798   6.347   2.773   3.888  0.7302 -0.5211 -0.0183
   66POPC  H18R 8799   6.336   2.778   3.777 -0.0320 -1.0003  0.0257
   66POPC  H18S 8800   6.449   2.807   3.916  0.4080 -1.3758  2.4043
   66POPC  H18T 8801   6.270   2.846   3.922  0.9381  1.8436 -3.9244
   66POPC   C33 8802   7.271   3.073   5.097 -0.2394 -0.3674 -0.1003
   66POPC   H3X 8803   7.355   3.128   5.143 -1.0260  1.9211 -1.2161
   66POPC   H3Y 8804   7.200   3.148   5.054  1.8447  1.7046 -0.1080
   66POPC   C34 8805   7.306   2.990   4.983 -0.2049 -0.1781  0.1306
   66POPC   H4X 8806   7.387   2.920   5.014 -0.3218 -1.2918 -1.8921
   66POPC   H4Y 8807   7.344   3.059   4.905  2.6151  1.3526  2.6544
   66POPC   C35 8808   7.195   2.899   4.933 -0.1020  0.0186  0.1022
   66POPC   H5X 8809   7.102   2.953   4.960 -0.3544 -0.7792  0.9063
   66POPC   H5Y 8810   7.199   2.807   4.996 -2.0834 -0.8103 -0.8902
   66POPC   C36 8811   7.207   2.860   4.787  0.0717  0.0398 -0.3214
   66POPC   H6X 8812   7.180   2.944   4.719  0.0840  0.9990  0.8382
   66POPC   H6Y 8813   7.133   2.778   4.773  1.2707 -1.1040 -0.0705
   66POPC   C37 8814   7.345   2.805   4.737  0.8955  0.4834 -0.5631
   66POPC   H7X 8815   7.363   2.713   4.796 -0.9418  0.7563  0.4885
   66POPC   H7Y 8816   7.426   2.876   4.766 -1.0105  1.7193  2.1973
   66POPC   C38 8817   7.341   2.776   4.589  0.2840 -0.1183 -0.2114
   66POPC   H8X 8818   7.318   2.873   4.540  0.2093 -0.1024 -0.1454
   66POPC   H8Y 8819   7.255   2.707   4.576  0.1391  0.2418 -1.3170
   66POPC   C39 8820   7.470   2.716   4.540  0.0238  0.3457  0.8650
   66POPC   H9X 8821   7.454   2.663   4.443 -0.7950 -2.4940  2.4508
   66POPC   H9Y 8822   7.513   2.643   4.612 -1.6380 -1.9013 -0.2773
   66POPC  C310 8823   7.569   2.829   4.509 -0.4350 -0.2272  0.4186
   66POPC  H10X 8824   7.589   2.889   4.600 -0.5024 -1.5380  1.3226
   66POPC  H10Y 8825   7.523   2.903   4.439 -0.7607 -0.3733  0.4785
   66POPC  C311 8826   7.712   2.774   4.465  0.7338  0.3925 -0.4782
   66POPC  H11X 8827   7.688   2.718   4.372  1.9106  0.7158 -0.9922
   66POPC  H11Y 8828   7.754   2.697   4.533  0.6630 -0.4935 -1.4010
   66POPC  C312 8829   7.807   2.881   4.428 -0.1427 -0.5908  0.3301
   66POPC  H12X 8830   7.845   2.928   4.522 -0.9640  2.6477 -0.7988
   66POPC  H12Y 8831   7.751   2.956   4.369  1.5133  0.1003 -0.4439
   66POPC  C313 8832   7.915   2.829   4.333  0.2660 -0.3863 -0.7557
   66POPC  H13X 8833   7.873   2.767   4.251 -0.7726 -0.0587 -0.4821
   66POPC  H13Y 8834   7.975   2.754   4.390  2.6224  1.1634 -1.0270
   66POPC  C314 8835   8.007   2.941   4.271  0.0397  0.0366 -0.4148
   66POPC  H14X 8836   8.034   3.004   4.358  0.3474 -2.2220  1.2009
   66POPC  H14Y 8837   7.946   3.008   4.206  0.1535  0.9639  0.4086
   66POPC  C315 8838   8.128   2.890   4.190 -0.4774 -0.2314  0.4972
   66POPC  H15X 8839   8.091   2.822   4.110  2.7592 -0.8182 -0.6191
   66POPC  H15Y 8840   8.199   2.836   4.256  0.6815  1.3954  0.6561
   66POPC  C316 8841   8.206   3.006   4.133  0.4960 -0.2688 -0.2581
   66POPC  H16X 8842   8.225   3.074   4.219 -1.9103 -0.5086  0.5183
   66POPC  H16Y 8843   8.146   3.067   4.062  0.0987  0.2471  0.5158
   66POPC  H16Z 8844   8.296   2.963   4.083 -1.1794 -2.6240 -1.4893
   67POPC     N 8845   7.212   7.395   6.248 -0.4286 -0.0826  0.0074
   67POPC   C12 8846   7.179   7.358   6.104  0.1556  0.0738 -0.4925
   67POPC  H12A 8847   7.267   7.377   6.044  0.5889  0.9584  0.3685
   67POPC  H12B 8848   7.102   7.422   6.065  0.9856 -0.5241 -3.3403
   67POPC   C13 8849   7.088   7.402   6.325  0.1345  0.8557 -0.5530
   67POPC  H13A 8850   7.030   7.477   6.275 -3.1319 -1.0502  0.0981
   67POPC  H13B 8851   7.027   7.315   6.306  1.4062  0.0753 -1.2234
   67POPC  H13C 8852   7.094   7.427   6.430 -0.7191  0.1467 -0.3241
   67POPC   C14 8853   7.307   7.300   6.299 -0.1930  0.2251  0.5582
   67POPC  H14A 8854   7.254   7.206   6.306 -0.0484 -0.0005 -1.0689
   67POPC  H14B 8855   7.382   7.277   6.225 -0.2002  0.5090  0.4601
   67POPC  H14C 8856   7.351   7.323   6.395  1.0528  0.9757 -0.1809
   67POPC   C15 8857   7.269   7.534   6.244  0.0277 -0.7047 -0.4127
   67POPC  H15A 8858   7.330   7.555   6.331  0.1813  1.2917 -0.9474
   67POPC  H15B 8859   7.200   7.616   6.235 -0.3832 -1.1268 -1.2310
   67POPC  H15C 8860   7.336   7.543   6.159 -1.5123  0.5181 -1.5516
   67POPC   C11 8861   7.128   7.220   6.059 -0.3424  0.6407  1.2809
   67POPC  H11A 8862   7.226   7.167   6.054  0.5438  2.2675  0.8268
   67POPC  H11B 8863   7.086   7.222   5.956  3.2147 -2.1520 -0.4397
   67POPC     P 8864   7.035   6.993   6.157 -0.1902 -0.3312 -0.3262
   67POPC   O13 8865   6.907   6.951   6.215  0.5663 -0.2021 -0.2751
   67POPC   O14 8866   7.158   6.946   6.226  0.4750 -0.3648 -0.2754
   67POPC   O12 8867   7.046   7.147   6.151 -0.5986 -0.2767  0.1579
   67POPC   O11 8868   7.040   6.934   6.005 -0.5074 -0.5780 -0.4358
   67POPC    C1 8869   6.913   6.919   5.940  0.2426  0.7077  0.2833
   67POPC    HA 8870   6.845   7.004   5.965 -1.7646 -0.7303 -0.0635
   67POPC    HB 8871   6.863   6.827   5.975  0.4098  0.9771  1.2666
   67POPC    C2 8872   6.920   6.918   5.783 -0.4482 -0.1483 -0.2490
   67POPC    HS 8873   6.822   6.891   5.738 -0.0982 -1.4489 -0.2694
   67POPC   O21 8874   7.012   6.826   5.728 -0.1406  0.3934  0.3340
   67POPC   C21 8875   6.986   6.698   5.737  0.5259 -0.2223  0.5989
   67POPC   O22 8876   6.886   6.652   5.791  0.7969  0.4589  0.4806
   67POPC   C22 8877   7.098   6.615   5.665  0.4359 -0.2479  0.3418
   67POPC   H2R 8878   7.136   6.533   5.729  0.4405 -0.6416 -0.1640
   67POPC   H2S 8879   7.185   6.680   5.643  0.9831 -0.4474  1.8209
   67POPC    C3 8880   6.970   7.060   5.726  0.4022 -0.1345  0.3156
   67POPC    HX 8881   7.079   7.063   5.745  0.0215  2.2892  2.6942
   67POPC    HY 8882   6.921   7.149   5.771  0.4690  1.1941 -2.0612
   67POPC   O31 8883   6.951   7.062   5.582 -0.6829 -0.0897 -0.2981
   67POPC   C31 8884   7.031   7.146   5.513 -0.9090 -0.2189  0.0369
   67POPC   O32 8885   7.115   7.219   5.566 -0.0032 -1.0400 -0.2956
   67POPC   C32 8886   7.023   7.119   5.368 -0.2552 -0.4800  0.5979
   67POPC   H2X 8887   7.002   7.011   5.350  0.6622 -0.1980 -2.8565
   67POPC   H2Y 8888   7.125   7.137   5.328 -1.4329 -0.2669 -2.5465
   67POPC   C23 8889   7.040   6.558   5.535  0.1255  0.0310 -0.0671
   67POPC   H3R 8890   6.954   6.490   5.551 -0.9156  1.5606  1.1471
   67POPC   H3S 8891   7.112   6.482   5.499  0.0557 -0.2744  0.4287
   67POPC   C24 8892   7.005   6.673   5.431 -0.1646  0.2541  0.5620
   67POPC   H4R 8893   7.088   6.745   5.419 -0.3784  0.4103 -0.0010
   67POPC   H4S 8894   6.920   6.740   5.456  1.1804  2.5986 -0.7723
   67POPC   C25 8895   6.952   6.618   5.297 -0.2552 -0.6115  0.1451
   67POPC   H5R 8896   6.848   6.586   5.320 -0.9885  0.4530 -1.4952
   67POPC   H5S 8897   7.008   6.529   5.262  0.1476 -0.1463 -0.4274
   67POPC   C26 8898   6.946   6.714   5.178 -0.3757 -0.6375  0.4619
   67POPC   H6R 8899   6.907   6.814   5.207 -1.3745 -0.7747 -0.3505
   67POPC   H6S 8900   6.877   6.677   5.099  0.9749  0.6561 -1.4177
   67POPC   C27 8901   7.087   6.730   5.119 -0.2628 -0.3384 -0.1772
   67POPC   H7R 8902   7.139   6.632   5.111 -0.9700 -0.6645 -0.9172
   67POPC   H7S 8903   7.161   6.790   5.177  0.9972 -1.2970 -0.7335
   67POPC   C28 8904   7.082   6.796   4.980 -0.1335  0.1810  0.9502
   67POPC   H8R 8905   7.055   6.703   4.925  1.1909 -0.9710  2.1632
   67POPC   H8S 8906   7.184   6.814   4.941 -0.2791  2.4345  1.5206
   67POPC   C29 8907   6.994   6.915   4.956 -0.2103 -0.0614  0.0334
   67POPC   H91 8908   6.890   6.894   4.987 -0.7075 -1.2671 -2.1826
   67POPC  C210 8909   7.021   7.041   4.914  0.0928  0.2184  0.2506
   67POPC  H101 8910   6.936   7.108   4.895 -0.6535 -0.5686  0.7787
   67POPC  C211 8911   7.161   7.091   4.886 -0.3347 -0.6019  0.3119
   67POPC  H11R 8912   7.162   7.147   4.790  2.5050  1.7116  1.5230
   67POPC  H11S 8913   7.232   7.007   4.875  1.5178  0.9960 -0.5451
   67POPC  C212 8914   7.211   7.197   4.979  0.1562  0.3583 -0.8265
   67POPC  H12R 8915   7.196   7.162   5.084  0.5063  0.1007 -0.8612
   67POPC  H12S 8916   7.144   7.286   4.975 -1.5582 -0.8377  0.0289
   67POPC  C213 8917   7.359   7.231   4.946 -0.5028 -1.1492 -0.4805
   67POPC  H13R 8918   7.361   7.285   4.848 -2.1959 -1.5172 -0.7472
   67POPC  H13S 8919   7.418   7.138   4.938 -0.0127 -0.8634 -0.2450
   67POPC  C214 8920   7.419   7.327   5.050 -0.5787 -0.0505 -0.4698
   67POPC  H14R 8921   7.521   7.340   5.010 -1.0480  1.8204 -1.1550
   67POPC  H14S 8922   7.421   7.276   5.149  0.5776 -2.0919 -1.4794
   67POPC  C215 8923   7.341   7.458   5.057  0.0687  0.0041  0.6213
   67POPC  H15R 8924   7.239   7.437   5.096  0.2942  1.8171  2.3140
   67POPC  H15S 8925   7.335   7.485   4.949  1.3369 -3.8858 -0.5988
   67POPC  C216 8926   7.400   7.572   5.147 -0.4608 -0.0498 -0.4682
   67POPC  H16R 8927   7.342   7.665   5.132 -0.8777 -0.4067 -1.1784
   67POPC  H16S 8928   7.499   7.598   5.106 -0.3262  1.1482  0.5690
   67POPC  C217 8929   7.405   7.540   5.300 -0.1210  0.3266  0.2818
   67POPC  H17R 8930   7.299   7.523   5.328 -0.3435 -1.4951 -1.4136
   67POPC  H17S 8931   7.453   7.441   5.313  0.3130  0.7644  2.3971
   67POPC  C218 8932   7.475   7.642   5.381  0.0377 -0.1137 -0.1197
   67POPC  H18R 8933   7.438   7.746   5.368 -1.4470 -0.4795  1.0081
   67POPC  H18S 8934   7.584   7.640   5.358 -0.0493 -0.2304 -0.5280
   67POPC  H18T 8935   7.472   7.619   5.489  0.2616 -0.3254 -0.1576
   67POPC   C33 8936   6.923   7.204   5.289  0.0210  0.2931  0.4638
   67POPC   H3X 8937   6.821   7.198   5.333 -0.3741 -0.0697 -0.4755
   67POPC   H3Y 8938   6.920   7.170   5.183 -1.1256  1.2548  0.1606
   67POPC   C34 8939   6.955   7.353   5.301 -0.2749 -0.4001 -0.4542
   67POPC   H4X 8940   7.059   7.376   5.271 -0.3869  1.4543  0.4485
   67POPC   H4Y 8941   6.940   7.382   5.407  0.6464  2.3001 -0.9887
   67POPC   C35 8942   6.874   7.448   5.216 -0.2908 -0.1514  0.8129
   67POPC   H5X 8943   6.890   7.554   5.246  0.5558  0.6272 -1.9967
   67POPC   H5Y 8944   6.764   7.438   5.221 -0.3153  0.1597  0.9263
   67POPC   C36 8945   6.928   7.448   5.070  0.1653 -0.0732  0.0932
   67POPC   H6X 8946   6.936   7.343   5.035  1.1059  0.4263 -1.2767
   67POPC   H6Y 8947   7.030   7.488   5.057  0.9867 -2.7094 -3.0333
   67POPC   C37 8948   6.818   7.509   4.981  0.2714  0.7816  1.0075
   67POPC   H7X 8949   6.793   7.612   5.013 -2.3428 -0.0633  1.9038
   67POPC   H7Y 8950   6.726   7.447   4.986  0.1389  0.8668 -0.1163
   67POPC   C38 8951   6.864   7.505   4.834 -0.3112 -0.1162  0.2399
   67POPC   H8X 8952   6.785   7.558   4.778 -1.5708 -0.3050  1.7818
   67POPC   H8Y 8953   6.865   7.395   4.814  1.2733 -0.5188  2.1932
   67POPC   C39 8954   6.994   7.586   4.802 -0.7318 -0.7992 -0.3716
   67POPC   H9X 8955   7.067   7.550   4.878 -1.0847  0.0553  0.3987
   67POPC   H9Y 8956   6.984   7.697   4.806 -0.0735 -0.6740 -1.7982
   67POPC  C310 8957   7.050   7.552   4.668 -0.1672  0.2647  0.5701
   67POPC  H10X 8958   7.001   7.614   4.589  0.0949 -1.3834 -0.9550
   67POPC  H10Y 8959   7.031   7.444   4.646 -0.3238  0.4592 -0.3141
   67POPC  C311 8960   7.197   7.554   4.655 -0.8444 -0.0504 -0.2806
   67POPC  H11X 8961   7.241   7.487   4.732  1.9938  0.7705 -1.0642
   67POPC  H11Y 8962   7.241   7.653   4.684  0.5555 -0.8511  0.4683
   67POPC  C312 8963   7.249   7.516   4.516  0.3616  0.5428 -0.0993
   67POPC  H12X 8964   7.221   7.592   4.440  1.5775 -0.7053 -1.8735
   67POPC  H12Y 8965   7.196   7.425   4.480  0.9199  0.8459 -1.8021
   67POPC  C313 8966   7.398   7.505   4.500 -0.0553 -0.2874  0.3459
   67POPC  H13X 8967   7.452   7.581   4.561  0.0022 -2.1803  2.8164
   67POPC  H13Y 8968   7.415   7.519   4.391 -0.6023  0.2894  0.3260
   67POPC  C314 8969   7.462   7.373   4.545 -0.2354 -0.4899  0.7194
   67POPC  H14X 8970   7.486   7.296   4.469  1.8182  0.7348  0.0393
   67POPC  H14Y 8971   7.391   7.325   4.616  0.8965 -2.8191  0.3645
   67POPC  C315 8972   7.600   7.394   4.622 -0.2666 -0.6090  0.6775
   67POPC  H15X 8973   7.593   7.461   4.710  0.6070  1.3703 -0.7032
   67POPC  H15Y 8974   7.669   7.444   4.551  0.5194 -0.0396  1.8070
   67POPC  C316 8975   7.662   7.259   4.666  0.0735 -0.1375  0.5833
   67POPC  H16X 8976   7.725   7.256   4.758  0.1475 -1.1839  0.5144
   67POPC  H16Y 8977   7.722   7.212   4.584  0.8475 -0.3551  1.2561
   67POPC  H16Z 8978   7.584   7.184   4.689  2.1295 -1.3750  4.5732
   68POPC     N 8979   0.655   5.983   6.045  0.4782 -0.6452 -0.1920
   68POPC   C12 8980   0.616   6.119   6.119 -0.1642  0.3283  0.1450
   68POPC  H12A 8981   0.702   6.135   6.183  0.6379  1.5597 -1.1608
   68POPC  H12B 8982   0.530   6.098   6.181 -0.2961 -1.5922 -0.6182
   68POPC   C13 8983   0.789   5.994   5.992 -0.5852 -0.0186  0.2327
   68POPC  H13A 8984   0.807   5.910   5.926  1.6627  0.9724 -0.5268
   68POPC  H13B 8985   0.799   6.079   5.926  0.9532 -0.9448 -0.8153
   68POPC  H13C 8986   0.863   5.999   6.071 -0.2506  3.5147 -0.1377
   68POPC   C14 8987   0.641   5.870   6.140 -0.7100  0.9526 -0.3690
   68POPC  H14A 8988   0.651   5.773   6.092 -0.3705  0.5143  0.5587
   68POPC  H14B 8989   0.711   5.874   6.223  0.1370 -3.4801 -0.6029
   68POPC  H14C 8990   0.550   5.869   6.197 -0.2458  0.0699  0.3928
   68POPC   C15 8991   0.559   5.961   5.932  0.2182  1.1500 -0.5172
   68POPC  H15A 8992   0.460   5.938   5.969  0.1354  1.2596 -0.6724
   68POPC  H15B 8993   0.591   5.887   5.861  3.9651  1.1836  0.8843
   68POPC  H15C 8994   0.563   6.048   5.869 -0.4228  0.7659 -1.0956
   68POPC   C11 8995   0.608   6.247   6.030  0.3415 -0.1886  0.1590
   68POPC  H11A 8996   0.695   6.250   5.962  0.9114  0.0749  0.8942
   68POPC  H11B 8997   0.615   6.338   6.092  1.1941  0.9446 -1.5382
   68POPC     P 8998   0.350   6.268   6.025  0.0534  0.0610 -0.0719
   68POPC   O13 8999   0.357   6.303   6.172  0.6204  0.7562  0.3996
   68POPC   O14 9000   0.244   6.170   5.990 -0.1522 -0.1660  0.6601
   68POPC   O12 9001   0.490   6.246   5.946  0.3194 -0.1766 -0.3490
   68POPC   O11 9002   0.298   6.408   5.968 -0.3866 -0.3439 -0.3258
   68POPC    C1 9003   0.377   6.515   5.925 -0.1622  0.0258 -0.2583
   68POPC    HA 9004   0.481   6.481   5.909 -0.4891 -0.4730 -1.4235
   68POPC    HB 9005   0.360   6.600   5.994 -1.8031 -0.9267  0.6013
   68POPC    C2 9006   0.339   6.560   5.782 -0.0920 -0.3384  0.4896
   68POPC    HS 9007   0.233   6.594   5.784 -0.1561 -0.3601 -0.9834
   68POPC   O21 9008   0.363   6.446   5.690  1.0552  0.5984 -0.5738
   68POPC   C21 9009   0.275   6.361   5.673 -0.6080  0.3663  0.5244
   68POPC   O22 9010   0.158   6.371   5.703  0.5912  0.7319  0.4004
   68POPC   C22 9011   0.332   6.243   5.583 -0.0074 -0.5702 -0.2137
   68POPC   H2R 9012   0.253   6.170   5.557 -2.2202  1.1694  1.1895
   68POPC   H2S 9013   0.411   6.206   5.652 -0.7125 -0.7280  0.5267
   68POPC    C3 9014   0.434   6.677   5.741 -0.1317  0.0124 -0.3816
   68POPC    HX 9015   0.537   6.650   5.773  0.4000 -0.8012 -2.5786
   68POPC    HY 9016   0.403   6.759   5.809  1.4725  0.8912 -0.6507
   68POPC   O31 9017   0.419   6.704   5.601 -0.2449  0.5725  0.3162
   68POPC   C31 9018   0.301   6.757   5.568 -0.7575  0.2860 -0.1151
   68POPC   O32 9019   0.215   6.792   5.646  0.2626 -0.3957  0.1882
   68POPC   C32 9020   0.286   6.799   5.420  0.3603 -0.2613  0.1169
   68POPC   H2X 9021   0.390   6.822   5.390  0.3930 -0.9217 -0.2815
   68POPC   H2Y 9022   0.225   6.892   5.416  1.6968  0.7636  1.8200
   68POPC   C23 9023   0.375   6.301   5.445 -0.5535  0.1677  0.2653
   68POPC   H3R 9024   0.458   6.242   5.401 -0.9783 -0.3936  0.2104
   68POPC   H3S 9025   0.419   6.400   5.469  0.6704 -0.2905 -0.0140
   68POPC   C24 9026   0.262   6.313   5.343  0.2004  0.9730 -0.8902
   68POPC   H4R 9027   0.196   6.400   5.357 -1.3313 -0.0257 -1.6557
   68POPC   H4S 9028   0.210   6.215   5.338  0.1729  0.9084  0.3919
   68POPC   C25 9029   0.313   6.345   5.203 -0.3225 -0.4702  0.5708
   68POPC   H5R 9030   0.398   6.276   5.181 -0.6025 -0.8792  0.7657
   68POPC   H5S 9031   0.356   6.447   5.204  0.4740 -0.7037 -1.9347
   68POPC   C26 9032   0.199   6.353   5.095  0.7208  0.3481 -0.3620
   68POPC   H6R 9033   0.131   6.435   5.126  0.0651  0.6655 -2.4862
   68POPC   H6S 9034   0.143   6.258   5.090  2.1032 -0.5464  0.5661
   68POPC   C27 9035   0.260   6.374   4.958  0.6427 -0.6011 -0.4205
   68POPC   H7R 9036   0.318   6.469   4.951  0.4736 -0.5258 -0.8091
   68POPC   H7S 9037   0.176   6.402   4.891  0.2071  1.4510  0.8918
   68POPC   C28 9038   0.347   6.258   4.903  0.2603 -0.0468  0.6530
   68POPC   H8R 9039   0.427   6.238   4.978 -1.2744  1.4255  2.7925
   68POPC   H8S 9040   0.397   6.298   4.812  0.5309  0.1518  0.8868
   68POPC   C29 9041   0.272   6.134   4.874 -0.2236  0.2960  0.3372
   68POPC   H91 9042   0.215   6.092   4.959  0.8116 -1.0580  0.3898
   68POPC  C210 9043   0.262   6.081   4.753  0.7062  0.5359 -0.5428
   68POPC  H101 9044   0.200   5.992   4.733  1.6208  0.0278 -1.2608
   68POPC  C211 9045   0.338   6.123   4.631 -0.0626 -0.4367  0.5098
   68POPC  H11R 9046   0.342   6.047   4.550  0.6439 -0.5671  0.6641
   68POPC  H11S 9047   0.445   6.150   4.639 -0.8227  2.5807  2.3174
   68POPC  C212 9048   0.267   6.240   4.563 -0.3645 -0.4155 -0.0766
   68POPC  H12R 9049   0.331   6.270   4.476 -0.8346 -1.2542 -0.7264
   68POPC  H12S 9050   0.275   6.323   4.636  0.8438 -1.4979  1.0787
   68POPC  C213 9051   0.123   6.225   4.501 -0.0941  0.9930 -0.7099
   68POPC  H13R 9052   0.057   6.227   4.590  0.9255  0.6032  0.0692
   68POPC  H13S 9053   0.123   6.130   4.444  0.8608  0.9363 -0.6325
   68POPC  C214 9054   0.106   6.346   4.399  0.4498  0.1392  0.8144
   68POPC  H14R 9055   0.189   6.362   4.327  0.6866 -0.9229  0.8356
   68POPC  H14S 9056   0.099   6.439   4.460 -1.9951  1.1322 -0.7903
   68POPC  C215 9057  -0.018   6.317   4.306 -0.2032  0.3205 -0.7918
   68POPC  H15R 9058  -0.075   6.229   4.342 -2.5604  2.0312 -0.0755
   68POPC  H15S 9059   0.020   6.281   4.208  0.4337 -0.1944 -0.3567
   68POPC  C216 9060  -0.121   6.434   4.308 -0.8204  0.7315 -0.4812
   68POPC  H16R 9061  -0.073   6.530   4.276  0.7047  0.0959 -0.1980
   68POPC  H16S 9062  -0.142   6.439   4.417 -1.5765 -0.6091 -0.5546
   68POPC  C217 9063  -0.231   6.406   4.213 -0.3877  0.5062  0.9490
   68POPC  H17R 9064  -0.248   6.297   4.221  1.7722  0.0077 -0.4406
   68POPC  H17S 9065  -0.202   6.426   4.107 -0.2137 -0.8345  0.7259
   68POPC  C218 9066  -0.362   6.497   4.238 -0.0044 -0.4469  0.5769
   68POPC  H18R 9067  -0.327   6.602   4.229  0.0592 -0.5479 -0.3797
   68POPC  H18S 9068  -0.404   6.472   4.338 -1.6362 -0.2637 -0.0305
   68POPC  H18T 9069  -0.438   6.473   4.161 -0.6908  0.3187  0.9947
   68POPC   C33 9070   0.243   6.685   5.324  0.0008  0.4856 -0.4880
   68POPC   H3X 9071   0.179   6.619   5.387  0.3991 -0.5327 -1.1235
   68POPC   H3Y 9072   0.332   6.640   5.276  0.3695  0.7089 -0.0229
   68POPC   C34 9073   0.159   6.738   5.204  0.4806  0.1758 -0.4145
   68POPC   H4X 9074   0.064   6.768   5.252  1.1887  0.0305  1.1523
   68POPC   H4Y 9075   0.148   6.661   5.125  1.4757  2.9390 -3.5116
   68POPC   C35 9076   0.216   6.856   5.123  0.5174 -0.7789  0.0825
   68POPC   H5X 9077   0.314   6.824   5.083  0.0739 -1.3988 -0.5189
   68POPC   H5Y 9078   0.232   6.933   5.202 -3.2786  0.6594 -0.3018
   68POPC   C36 9079   0.115   6.908   5.006  0.0056 -0.3378 -0.3027
   68POPC   H6X 9080   0.154   6.997   4.954 -2.4129  1.5873  0.9670
   68POPC   H6Y 9081   0.023   6.935   5.063 -0.7665 -1.4516 -0.9663
   68POPC   C37 9082   0.085   6.810   4.892 -0.5082  0.3817  0.4702
   68POPC   H7X 9083   0.043   6.715   4.931  2.0266 -0.3949  1.5321
   68POPC   H7Y 9084   0.180   6.791   4.837  0.5469  1.3370  1.8597
   68POPC   C38 9085  -0.010   6.857   4.778 -0.7259  0.3421 -0.5759
   68POPC   H8X 9086   0.036   6.942   4.723  0.2754  0.5795  0.5853
   68POPC   H8Y 9087  -0.102   6.894   4.829 -1.1166 -0.5698 -0.5980
   68POPC   C39 9088  -0.046   6.756   4.678 -0.2489  0.5964 -0.3975
   68POPC   H9X 9089  -0.092   6.669   4.730 -0.7819  0.4379 -1.1241
   68POPC   H9Y 9090   0.053   6.715   4.650  0.7956  2.2130  0.7324
   68POPC  C310 9091  -0.126   6.806   4.564 -0.2730  0.0515 -0.2549
   68POPC  H10X 9092  -0.191   6.886   4.604 -0.3863 -0.4681  0.6358
   68POPC  H10Y 9093  -0.197   6.726   4.536  0.3130 -0.6654  0.2668
   68POPC  C311 9094  -0.048   6.865   4.449  0.2016  0.2522 -0.7480
   68POPC  H11X 9095   0.016   6.787   4.403  0.8420 -0.3712  1.1096
   68POPC  H11Y 9096   0.018   6.948   4.483  0.9499 -0.2125 -1.0448
   68POPC  C312 9097  -0.132   6.933   4.338 -0.8796  0.2600  0.7265
   68POPC  H12X 9098  -0.209   6.859   4.305  1.5846 -1.3076 -1.9805
   68POPC  H12Y 9099  -0.067   6.957   4.252 -0.7092 -1.8879  0.2073
   68POPC  C313 9100  -0.194   7.064   4.379 -0.2515  0.1993 -0.2409
   68POPC  H13X 9101  -0.131   7.123   4.450 -1.9990  1.8780 -0.0033
   68POPC  H13Y 9102  -0.291   7.036   4.425 -2.2680  1.3859 -3.4032
   68POPC  C314 9103  -0.224   7.157   4.259  0.5410  0.4730  0.0007
   68POPC  H14X 9104  -0.247   7.094   4.170  1.0239  1.1785 -0.6343
   68POPC  H14Y 9105  -0.134   7.216   4.231  0.4304 -0.7982 -3.5873
   68POPC  C315 9106  -0.343   7.247   4.301 -0.6618  0.1176  0.7617
   68POPC  H15X 9107  -0.319   7.330   4.370 -0.5562  1.9204 -1.3357
   68POPC  H15Y 9108  -0.418   7.181   4.349  0.0643 -0.6049  0.9196
   68POPC  C316 9109  -0.419   7.310   4.193 -0.0338  0.2549  0.3165
   68POPC  H16X 9110  -0.444   7.234   4.115 -0.8211  2.6550 -1.9205
   68POPC  H16Y 9111  -0.365   7.393   4.144 -1.0490  1.4635  1.1959
   68POPC  H16Z 9112  -0.508   7.353   4.244 -2.0266 -1.9943 -0.9970
   69POPC     N 9113   1.988   5.025   6.082 -0.2542 -0.1896  0.3333
   69POPC   C12 9114   2.072   5.125   6.001 -0.4003 -0.3770  0.3207
   69POPC  H12A 9115   2.165   5.077   5.974  0.5561  2.2922 -1.6575
   69POPC  H12B 9116   2.114   5.204   6.063 -0.7607 -0.6825  0.9634
   69POPC   C13 9117   1.867   5.094   6.132 -0.6611 -0.0145 -0.6100
   69POPC  H13A 9118   1.900   5.164   6.207  1.8361  0.2159 -1.8121
   69POPC  H13B 9119   1.811   5.148   6.058  0.9979  0.1996 -1.7687
   69POPC  H13C 9120   1.800   5.018   6.169  0.7047 -1.2529 -0.5922
   69POPC   C14 9121   1.942   4.917   6.005  0.7548 -0.2249 -0.8776
   69POPC  H14A 9122   2.011   4.834   6.015  1.0914  0.2688  1.6246
   69POPC  H14B 9123   1.857   4.862   6.044  0.7950  0.8570  0.8425
   69POPC  H14C 9124   1.911   4.939   5.904 -1.7486 -1.6265 -0.4962
   69POPC   C15 9125   2.047   4.966   6.204 -0.5014  0.1689 -1.0750
   69POPC  H15A 9126   2.137   4.910   6.180  0.8040  1.1252  1.2271
   69POPC  H15B 9127   1.973   4.904   6.250 -0.2302  0.4627 -0.2350
   69POPC  H15C 9128   2.075   5.030   6.286 -1.4544 -1.5936  0.6956
   69POPC   C11 9129   2.004   5.176   5.874 -1.0490  0.0185  0.0205
   69POPC  H11A 9130   1.942   5.101   5.820 -0.1466 -0.1710 -0.7768
   69POPC  H11B 9131   2.092   5.215   5.819  0.2771 -0.7387  1.5293
   69POPC     P 9132   1.948   5.427   5.930  0.0877 -0.1029 -0.1260
   69POPC   O13 9133   2.063   5.436   6.021 -0.2716  0.0116  0.9079
   69POPC   O14 9134   1.828   5.511   5.958 -0.6753  0.1919  0.0345
   69POPC   O12 9135   1.909   5.278   5.913 -0.6237  0.6582  0.0668
   69POPC   O11 9136   2.003   5.463   5.784  0.6834  0.1390  0.0914
   69POPC    C1 9137   1.907   5.467   5.676  0.5993 -0.2153  0.0996
   69POPC    HA 9138   1.916   5.569   5.632  0.5864 -0.0236  0.5360
   69POPC    HB 9139   1.801   5.465   5.708  0.7777 -1.5592  0.6883
   69POPC    C2 9140   1.937   5.365   5.561  0.5593  0.4491 -0.1167
   69POPC    HS 9141   1.961   5.270   5.614 -1.8171 -0.0523  0.1828
   69POPC   O21 9142   2.040   5.406   5.480 -0.0884 -0.0512 -0.0732
   69POPC   C21 9143   2.078   5.308   5.400 -0.5044 -0.5958 -0.3602
   69POPC   O22 9144   2.051   5.193   5.396 -0.4932  0.3669 -0.2484
   69POPC   C22 9145   2.186   5.370   5.304  0.3844 -0.0016  0.0874
   69POPC   H2R 9146   2.276   5.309   5.326 -0.9951 -1.8412  0.8679
   69POPC   H2S 9147   2.196   5.479   5.324 -0.3143  0.1417 -0.3033
   69POPC    C3 9148   1.802   5.328   5.480 -0.6169 -1.0357  0.3003
   69POPC    HX 9149   1.720   5.320   5.554 -0.1109 -0.9982  0.8689
   69POPC    HY 9150   1.814   5.229   5.430  0.4139 -0.1260 -1.3494
   69POPC   O31 9151   1.790   5.436   5.385  0.4485  0.0520 -0.1234
   69POPC   C31 9152   1.671   5.495   5.374 -0.5720 -0.0763  0.3775
   69POPC   O32 9153   1.567   5.466   5.434 -0.4652 -0.0910 -0.3124
   69POPC   C32 9154   1.679   5.631   5.295 -0.0016  0.2841 -0.1032
   69POPC   H2X 9155   1.786   5.638   5.265  0.3107 -0.6162  0.7551
   69POPC   H2Y 9156   1.677   5.714   5.370 -0.7248 -0.8505  1.1810
   69POPC   C23 9157   2.157   5.347   5.150  0.3699 -0.3380  0.0849
   69POPC   H3R 9158   2.123   5.241   5.145  0.1416 -0.2771  0.3049
   69POPC   H3S 9159   2.259   5.342   5.107  1.3827 -0.2251  2.3454
   69POPC   C24 9160   2.059   5.446   5.088  0.0553  0.2450 -0.0414
   69POPC   H4R 9161   2.117   5.538   5.065  0.5386  0.2375  1.0691
   69POPC   H4S 9162   1.974   5.466   5.156  1.2738  0.9320  1.3489
   69POPC   C25 9163   1.993   5.396   4.958  0.3724  0.7012  0.7764
   69POPC   H5R 9164   1.946   5.297   4.980  1.2931  0.0631 -0.0065
   69POPC   H5S 9165   2.071   5.373   4.882  1.3280  1.2536  1.5599
   69POPC   C26 9166   1.881   5.486   4.901 -0.1332  0.1576  0.0954
   69POPC   H6R 9167   1.930   5.583   4.875  0.7882 -0.3357 -0.0489
   69POPC   H6S 9168   1.804   5.492   4.981 -0.2333 -1.3411  0.1407
   69POPC   C27 9169   1.810   5.413   4.780  0.0053  0.3891  0.2065
   69POPC   H7R 9170   1.759   5.327   4.828 -1.6686  1.6547  0.8101
   69POPC   H7S 9171   1.878   5.378   4.700 -0.4232  2.3771 -1.1231
   69POPC   C28 9172   1.708   5.505   4.708  0.0455  0.5354  0.1992
   69POPC   H8R 9173   1.635   5.544   4.782 -0.8084 -2.2605  0.9575
   69POPC   H8S 9174   1.648   5.438   4.642  0.6801 -0.6001  0.7355
   69POPC   C29 9175   1.774   5.611   4.626 -0.3754 -0.2652  0.1457
   69POPC   H91 9176   1.804   5.705   4.677 -0.0147  1.4280 -2.9602
   69POPC  C210 9177   1.823   5.583   4.504  0.0892  1.0290 -0.2717
   69POPC  H101 9178   1.880   5.663   4.455  1.4958 -0.0977 -0.5510
   69POPC  C211 9179   1.812   5.463   4.417  0.2049 -0.2354 -0.1526
   69POPC  H11R 9180   1.775   5.490   4.316  1.0070  0.9164 -0.1533
   69POPC  H11S 9181   1.746   5.379   4.448  1.9557 -1.9520 -0.8827
   69POPC  C212 9182   1.944   5.388   4.388 -0.5055  0.0427 -0.1421
   69POPC  H12R 9183   1.917   5.290   4.342  1.3296  0.3773 -2.1367
   69POPC  H12S 9184   1.987   5.374   4.489 -1.5268  0.7318  0.4027
   69POPC  C213 9185   2.055   5.463   4.312  0.5352 -0.3021  0.7383
   69POPC  H13R 9186   2.143   5.395   4.310  2.2043  1.6904 -2.1045
   69POPC  H13S 9187   2.081   5.559   4.362 -0.6459 -0.7216  2.2327
   69POPC  C214 9188   2.021   5.512   4.164  0.1662 -0.4829  0.1968
   69POPC  H14R 9189   1.954   5.600   4.176  0.6907 -0.3902  3.1511
   69POPC  H14S 9190   1.966   5.424   4.123  1.7009 -1.6285  0.4861
   69POPC  C215 9191   2.136   5.535   4.075  0.1204 -0.8415 -0.4283
   69POPC  H15R 9192   2.217   5.462   4.097  1.6916  1.1126  0.7372
   69POPC  H15S 9193   2.171   5.640   4.091 -2.2139 -0.0566 -0.0979
   69POPC  C216 9194   2.091   5.527   3.930  0.4409 -0.2777  0.0519
   69POPC  H16R 9195   2.012   5.604   3.915  0.4854 -0.4972 -1.5129
   69POPC  H16S 9196   2.034   5.434   3.909  0.2194 -0.0900 -0.1893
   69POPC  C217 9197   2.200   5.540   3.829 -0.2928  0.1956  0.3788
   69POPC  H17R 9198   2.263   5.632   3.840  0.9504 -0.0186 -3.4614
   69POPC  H17S 9199   2.146   5.548   3.732 -0.4431  1.2557  0.5341
   69POPC  C218 9200   2.291   5.423   3.828  0.6573  0.4240 -0.1976
   69POPC  H18R 9201   2.236   5.329   3.851 -0.5894  0.2334 -3.3980
   69POPC  H18S 9202   2.380   5.434   3.894  0.4297 -0.7213  0.3376
   69POPC  H18T 9203   2.331   5.416   3.725  2.9378  3.9463  0.2811
   69POPC   C33 9204   1.574   5.641   5.184  0.5378  0.1760  0.3614
   69POPC   H3X 9205   1.469   5.643   5.221 -0.1645 -1.5572 -1.3778
   69POPC   H3Y 9206   1.585   5.552   5.119  1.0504 -0.5378  1.3917
   69POPC   C34 9207   1.589   5.770   5.091  0.0604  0.2771  0.0918
   69POPC   H4X 9208   1.677   5.757   5.025  1.5826 -0.6345  2.2251
   69POPC   H4Y 9209   1.614   5.853   5.160  0.5380  1.3711 -1.3466
   69POPC   C35 9210   1.463   5.801   5.006  0.0703  0.1490  0.2600
   69POPC   H5X 9211   1.455   5.907   4.972 -0.2962 -0.4206 -1.5457
   69POPC   H5Y 9212   1.376   5.781   5.071  0.6326 -0.9186  0.7089
   69POPC   C36 9213   1.453   5.708   4.883  0.1630 -0.1000  0.8015
   69POPC   H6X 9214   1.454   5.603   4.917  0.3906 -0.7899 -1.2024
   69POPC   H6Y 9215   1.535   5.726   4.810 -1.5027 -1.1314 -1.4708
   69POPC   C37 9216   1.315   5.730   4.820 -0.6733 -0.4376  0.4023
   69POPC   H7X 9217   1.293   5.833   4.785  2.1308  0.5820  1.3640
   69POPC   H7Y 9218   1.244   5.723   4.906 -0.1133  0.4657  0.9567
   69POPC   C38 9219   1.267   5.632   4.708 -0.6065 -0.8624 -0.7358
   69POPC   H8X 9220   1.186   5.677   4.648  1.3059  0.4185 -2.5109
   69POPC   H8Y 9221   1.219   5.545   4.757 -1.3042 -0.6494 -1.0420
   69POPC   C39 9222   1.380   5.582   4.617 -0.3462  0.6978 -0.5844
   69POPC   H9X 9223   1.444   5.515   4.678  3.8659  1.2765 -3.8783
   69POPC   H9Y 9224   1.448   5.657   4.571  2.4703 -1.4185 -0.1182
   69POPC  C310 9225   1.328   5.505   4.500  0.8305 -0.3511  0.3580
   69POPC  H10X 9226   1.274   5.572   4.430  2.9674  1.3859  0.2552
   69POPC  H10Y 9227   1.260   5.424   4.536 -2.0952  2.7605  2.4174
   69POPC  C311 9228   1.445   5.454   4.418  0.6339  0.4362  0.0833
   69POPC  H11X 9229   1.508   5.393   4.486  0.7079 -0.3198 -0.6517
   69POPC  H11Y 9230   1.497   5.546   4.382 -1.5769  2.6770  2.2609
   69POPC  C312 9231   1.401   5.386   4.284  0.6408 -0.5300  0.0613
   69POPC  H12X 9232   1.339   5.447   4.215 -0.3882 -0.6937  0.8203
   69POPC  H12Y 9233   1.339   5.297   4.309 -3.3805  1.4891 -1.6888
   69POPC  C313 9234   1.524   5.329   4.201  0.0144 -0.0623 -0.1758
   69POPC  H13X 9235   1.602   5.408   4.210  0.6453 -0.6397 -0.3985
   69POPC  H13Y 9236   1.494   5.309   4.096 -1.2261 -1.9972  0.4870
   69POPC  C314 9237   1.583   5.196   4.259 -0.1246 -0.7536 -0.3077
   69POPC  H14X 9238   1.505   5.119   4.275 -0.8802  0.0491 -0.0455
   69POPC  H14Y 9239   1.620   5.222   4.360 -0.3223  0.1055 -0.4431
   69POPC  C315 9240   1.701   5.141   4.174 -1.3136 -0.2185  0.0665
   69POPC  H15X 9241   1.785   5.211   4.156 -0.8421 -0.9214 -0.5408
   69POPC  H15Y 9242   1.666   5.122   4.070  1.2256 -0.9111 -0.7436
   69POPC  C316 9243   1.771   5.023   4.242 -0.0979 -0.2790  0.4552
   69POPC  H16X 9244   1.824   5.055   4.335  1.0808 -0.8539 -0.0019
   69POPC  H16Y 9245   1.844   4.988   4.166  1.4068 -0.5349  1.9411
   69POPC  H16Z 9246   1.704   4.935   4.257 -1.4120  0.1993 -2.0788
   70POPC     N 9247   6.461   4.979   6.213 -0.3793  0.0802  0.0784
   70POPC   C12 9248   6.514   5.050   6.093 -0.0017 -0.8644 -0.0580
   70POPC  H12A 9249   6.434   5.069   6.023 -0.6355 -1.7262  0.4083
   70POPC  H12B 9250   6.582   4.982   6.045 -0.2408 -1.9730  1.1012
   70POPC   C13 9251   6.364   4.882   6.160 -0.3688 -0.6665  0.0714
   70POPC  H13A 9252   6.401   4.809   6.089 -1.1803 -0.0501 -1.0257
   70POPC  H13B 9253   6.329   4.816   6.238 -0.8776  0.7175  1.0517
   70POPC  H13C 9254   6.290   4.938   6.105  0.2452  0.9169  0.8190
   70POPC   C14 9255   6.572   4.913   6.288  0.3006 -0.0049  1.1613
   70POPC  H14A 9256   6.632   4.855   6.220  1.8391  0.1046  2.3792
   70POPC  H14B 9257   6.643   4.990   6.314  0.7268  0.3673 -0.9316
   70POPC  H14C 9258   6.529   4.856   6.369  1.2997  0.3566  1.9644
   70POPC   C15 9259   6.398   5.070   6.306 -0.3380 -0.5364 -0.1374
   70POPC  H15A 9260   6.313   5.124   6.266 -0.4200 -1.4801 -1.2828
   70POPC  H15B 9261   6.477   5.135   6.340 -0.7550 -1.2785  2.4710
   70POPC  H15C 9262   6.361   5.018   6.393 -2.3418  1.3099  0.2087
   70POPC   C11 9263   6.593   5.181   6.123  0.4349 -0.1622  0.6657
   70POPC  H11A 9264   6.525   5.261   6.159  1.2439  0.7242  0.2752
   70POPC  H11B 9265   6.627   5.219   6.024  0.7360 -2.6445 -0.2623
   70POPC     P 9266   6.804   5.291   6.243  0.3066  0.2944 -0.0487
   70POPC   O13 9267   6.942   5.259   6.209 -0.8051 -0.1095  0.2245
   70POPC   O14 9268   6.774   5.330   6.380 -0.5536 -0.0204  0.5737
   70POPC   O12 9269   6.716   5.162   6.204 -0.1258 -0.3885  0.3242
   70POPC   O11 9270   6.757   5.410   6.150 -0.0352 -0.2178 -0.6670
   70POPC    C1 9271   6.831   5.525   6.157  0.0568  0.3357  0.7887
   70POPC    HA 9272   6.900   5.532   6.244  1.5794  0.0444 -0.3450
   70POPC    HB 9273   6.770   5.618   6.166  2.1960  1.9102  0.0914
   70POPC    C2 9274   6.927   5.553   6.031 -0.1283 -0.3683 -0.4295
   70POPC    HS 9275   6.862   5.605   5.957 -1.1898 -0.9017  0.1078
   70POPC   O21 9276   6.972   5.440   5.971  0.2002 -0.1990  0.5057
   70POPC   C21 9277   6.883   5.374   5.892  0.3246  0.3818 -0.3269
   70POPC   O22 9278   6.769   5.401   5.871  0.2394 -0.3292 -0.5786
   70POPC   C22 9279   6.946   5.255   5.827 -0.3719  0.6359  0.0741
   70POPC   H2R 9280   6.873   5.172   5.832  1.0721 -0.6044  2.1599
   70POPC   H2S 9281   7.036   5.224   5.885  0.7853  1.0176 -1.4515
   70POPC    C3 9282   7.043   5.644   6.083  0.0906 -1.0145  0.3658
   70POPC    HX 9283   7.100   5.586   6.158  0.3304  0.7231  1.5896
   70POPC    HY 9284   6.997   5.723   6.145 -1.0397  1.3541 -3.1473
   70POPC   O31 9285   7.113   5.702   5.974  0.2857  0.3150 -0.1932
   70POPC   C31 9286   7.218   5.631   5.941 -0.0325  0.0510 -0.0312
   70POPC   O32 9287   7.267   5.533   6.002  0.1965 -0.6529  0.2482
   70POPC   C32 9288   7.292   5.708   5.827  0.3855  0.4232  0.2819
   70POPC   H2X 9289   7.322   5.808   5.865  0.4791 -0.5722  2.9713
   70POPC   H2Y 9290   7.212   5.718   5.750 -0.5415 -0.3377  1.1286
   70POPC   C23 9291   6.982   5.291   5.684  0.0988 -0.5711  0.6577
   70POPC   H3R 9292   6.906   5.347   5.625  1.2835 -0.6063 -0.9599
   70POPC   H3S 9293   7.007   5.198   5.629 -0.4729 -1.2801  1.5547
   70POPC   C24 9294   7.115   5.380   5.664  0.3066 -0.6765 -0.0510
   70POPC   H4R 9295   7.199   5.327   5.714  1.2823 -1.3678 -2.2706
   70POPC   H4S 9296   7.117   5.480   5.711  0.0717 -0.9566  0.5571
   70POPC   C25 9297   7.161   5.403   5.521 -0.0336 -0.5670 -0.0048
   70POPC   H5R 9298   7.145   5.307   5.467  1.2419  1.0039 -3.4485
   70POPC   H5S 9299   7.269   5.429   5.528  0.2226 -1.5465 -0.1721
   70POPC   C26 9300   7.096   5.519   5.444  0.3246  0.1093  0.4816
   70POPC   H6R 9301   7.103   5.610   5.508  1.1617  0.0617  0.4753
   70POPC   H6S 9302   6.989   5.496   5.428 -0.0225 -0.3827  3.1065
   70POPC   C27 9303   7.172   5.535   5.309 -0.8394 -0.7449 -1.3577
   70POPC   H7R 9304   7.282   5.533   5.320 -0.8566  1.8368  0.1350
   70POPC   H7S 9305   7.149   5.637   5.270 -1.3210  0.3128  1.3870
   70POPC   C28 9306   7.132   5.436   5.199  0.2986 -0.5307  0.8057
   70POPC   H8R 9307   7.023   5.456   5.187  0.3690 -0.0677  0.9197
   70POPC   H8S 9308   7.144   5.334   5.242  2.1888 -1.0571 -0.8783
   70POPC   C29 9309   7.210   5.451   5.076 -0.8545 -0.0074 -0.2720
   70POPC   H91 9310   7.319   5.451   5.089 -0.7997 -0.6544 -0.6740
   70POPC  C210 9311   7.162   5.434   4.952  0.0602  0.2992 -0.7907
   70POPC  H101 9312   7.237   5.440   4.871  1.6267  1.6153  0.6580
   70POPC  C211 9313   7.021   5.408   4.913 -0.0774 -0.7195  0.9506
   70POPC  H11R 9314   6.945   5.440   4.987 -0.9373  1.0824 -0.6258
   70POPC  H11S 9315   7.006   5.300   4.889 -0.8587 -0.3211 -0.4930
   70POPC  C212 9316   6.975   5.484   4.781  0.0176 -0.0479 -0.3088
   70POPC  H12R 9317   7.019   5.428   4.695  1.8064 -0.0303  0.5366
   70POPC  H12S 9318   7.012   5.589   4.779  0.9251 -0.0895  3.9570
   70POPC  C213 9319   6.828   5.469   4.771  0.6003  0.1704  0.4555
   70POPC  H13R 9320   6.803   5.368   4.809 -1.1210  0.6401  0.6346
   70POPC  H13S 9321   6.789   5.469   4.667  0.6194 -1.4573  0.4148
   70POPC  C214 9322   6.738   5.572   4.844 -0.0793  0.1902 -0.3937
   70POPC  H14R 9323   6.786   5.671   4.827  1.3322 -0.5767 -1.0052
   70POPC  H14S 9324   6.733   5.549   4.953 -0.8853 -3.1056 -1.0253
   70POPC  C215 9325   6.591   5.583   4.805 -0.0321 -0.8980  0.2744
   70POPC  H15R 9326   6.524   5.498   4.826 -0.1589 -1.0747 -0.8165
   70POPC  H15S 9327   6.593   5.594   4.695  0.0398  2.5053  0.5085
   70POPC  C216 9328   6.516   5.711   4.842  0.0949  0.7027 -0.0454
   70POPC  H16R 9329   6.587   5.794   4.822  1.7480 -0.5668  0.3838
   70POPC  H16S 9330   6.497   5.708   4.951 -0.8881  0.1172 -0.2174
   70POPC  C217 9331   6.374   5.727   4.783 -0.0236  0.0747 -0.2310
   70POPC  H17R 9332   6.326   5.812   4.836  1.2215  1.5632 -1.3633
   70POPC  H17S 9333   6.313   5.637   4.805 -1.7106  0.9505 -1.1131
   70POPC  C218 9334   6.375   5.750   4.627  0.5916  0.2691 -0.4801
   70POPC  H18R 9335   6.281   5.802   4.601  0.5927 -0.7838 -2.7518
   70POPC  H18S 9336   6.389   5.652   4.576  2.3011  0.5189 -0.5644
   70POPC  H18T 9337   6.452   5.815   4.580  0.0053  0.5612 -1.0446
   70POPC   C33 9338   7.416   5.629   5.773 -0.3438 -0.0069 -0.4654
   70POPC   H3X 9339   7.397   5.522   5.752  3.1730 -0.7630 -0.3868
   70POPC   H3Y 9340   7.499   5.622   5.846  0.3753  0.1940 -1.2570
   70POPC   C34 9341   7.468   5.690   5.646 -0.3747  0.4648  0.3928
   70POPC   H4X 9342   7.505   5.793   5.664  0.3449  0.5989 -1.5840
   70POPC   H4Y 9343   7.387   5.686   5.570 -0.9371 -2.5261  1.0181
   70POPC   C35 9344   7.586   5.605   5.598  0.1923 -0.1269 -0.4113
   70POPC   H5X 9345   7.551   5.502   5.576  0.7362 -0.4940  0.3926
   70POPC   H5Y 9346   7.663   5.596   5.677 -1.6318  0.9775  1.5942
   70POPC   C36 9347   7.641   5.654   5.457  0.4971  0.2435  0.3165
   70POPC   H6X 9348   7.680   5.757   5.470  1.3699 -0.0807  0.3004
   70POPC   H6Y 9349   7.553   5.648   5.389  0.5889 -0.6226  0.2627
   70POPC   C37 9350   7.739   5.550   5.395 -0.1974 -0.6705 -0.7800
   70POPC   H7X 9351   7.707   5.445   5.412  0.3714 -0.5607  1.2566
   70POPC   H7Y 9352   7.834   5.568   5.451  0.3053  1.4425 -2.2130
   70POPC   C38 9353   7.764   5.582   5.249 -0.0650 -0.0360 -0.0667
   70POPC   H8X 9354   7.790   5.690   5.245 -2.4246  0.8491  3.2221
   70POPC   H8Y 9355   7.671   5.561   5.192  0.6447  1.4434 -1.8717
   70POPC   C39 9356   7.879   5.499   5.189  0.5589  0.1309 -0.7554
   70POPC   H9X 9357   7.846   5.395   5.207 -1.6009  1.2036  2.4767
   70POPC   H9Y 9358   7.964   5.515   5.258 -0.6370 -1.6646  1.2688
   70POPC  C310 9359   7.900   5.534   5.039  0.0901 -0.3846 -0.6234
   70POPC  H10X 9360   7.950   5.633   5.042 -2.2890  0.8527  1.0863
   70POPC  H10Y 9361   7.800   5.536   4.991  0.1826 -3.3274 -1.1601
   70POPC  C311 9362   7.985   5.429   4.977  0.3084  0.5050  0.3334
   70POPC  H11X 9363   7.937   5.329   4.974  2.0551 -0.3689  0.2101
   70POPC  H11Y 9364   8.077   5.412   5.037 -0.6806 -0.5137  1.6238
   70POPC  C312 9365   8.022   5.459   4.829  0.2837  0.0995  0.0103
   70POPC  H12X 9366   8.084   5.551   4.826 -0.5155  0.6201 -1.0537
   70POPC  H12Y 9367   7.926   5.463   4.775 -0.6601 -1.6316  1.4353
   70POPC  C313 9368   8.100   5.344   4.768 -0.0101  0.1467 -0.3034
   70POPC  H13X 9369   8.051   5.249   4.799  1.0279  0.0456  1.1069
   70POPC  H13Y 9370   8.197   5.352   4.822 -0.6846  1.6541  0.7887
   70POPC  C314 9371   8.131   5.360   4.615 -0.1739  0.5123 -0.5248
   70POPC  H14X 9372   8.173   5.462   4.601  1.8706  0.0459  1.6409
   70POPC  H14Y 9373   8.039   5.357   4.552  0.0099 -0.8087 -0.7734
   70POPC  C315 9374   8.243   5.261   4.561  0.3289 -0.0126 -0.0060
   70POPC  H15X 9375   8.217   5.154   4.570  2.1282 -0.5981 -1.3014
   70POPC  H15Y 9376   8.325   5.279   4.634  0.9856 -2.3912 -0.0751
   70POPC  C316 9377   8.287   5.285   4.419  0.3340 -0.1132  0.1286
   70POPC  H16X 9378   8.381   5.236   4.385 -0.7632 -0.3714 -2.8417
   70POPC  H16Y 9379   8.305   5.394   4.401 -1.0251  0.1752  0.4225
   70POPC  H16Z 9380   8.205   5.265   4.346  2.2692 -0.2230 -2.1434
   71POPC     N 9381   2.270   6.356   6.300  0.4257 -0.6027 -0.2554
   71POPC   C12 9382   2.415   6.400   6.292 -0.9218 -0.0128  0.0148
   71POPC  H12A 9383   2.483   6.332   6.341 -1.4022 -1.7067 -1.5312
   71POPC  H12B 9384   2.430   6.495   6.340  3.9577  0.7121 -2.3457
   71POPC   C13 9385   2.236   6.329   6.446 -0.3397  0.1624 -0.6183
   71POPC  H13A 9386   2.251   6.406   6.519  0.5643 -0.1946 -0.4101
   71POPC  H13B 9387   2.131   6.304   6.456 -0.4074  0.7731  0.2391
   71POPC  H13C 9388   2.304   6.250   6.476  1.6958  1.3889 -1.7326
   71POPC   C14 9389   2.183   6.467   6.251 -0.7791 -0.3492 -0.2394
   71POPC  H14A 9390   2.082   6.428   6.247 -1.2405  0.8234 -0.2531
   71POPC  H14B 9391   2.197   6.555   6.311  1.0178 -1.3429  0.9034
   71POPC  H14C 9392   2.223   6.492   6.154 -0.6023 -1.6892 -0.5416
   71POPC   C15 9393   2.237   6.241   6.211 -0.1897  0.2237 -0.8403
   71POPC  H15A 9394   2.309   6.161   6.225 -0.2713  0.2547 -0.1749
   71POPC  H15B 9395   2.234   6.271   6.108 -1.2437  1.7048 -0.4162
   71POPC  H15C 9396   2.150   6.194   6.255  1.2628 -2.2344 -0.3726
   71POPC   C11 9397   2.476   6.413   6.151 -0.4102  0.6535  0.1299
   71POPC  H11A 9398   2.574   6.464   6.163 -0.5668  0.9962 -0.0174
   71POPC  H11B 9399   2.411   6.483   6.093  0.1191  0.3853 -0.8025
   71POPC     P 9400   2.609   6.198   6.059  0.1858 -0.3703  0.2462
   71POPC   O13 9401   2.564   6.056   6.036 -0.1703 -0.2142  0.7141
   71POPC   O14 9402   2.711   6.221   6.159 -0.3942 -0.1174 -0.4107
   71POPC   O12 9403   2.481   6.290   6.086 -0.5582 -0.3663 -0.2205
   71POPC   O11 9404   2.665   6.258   5.926  0.0806  0.1572  0.9732
   71POPC    C1 9405   2.592   6.265   5.806 -0.2358  0.5438 -0.4385
   71POPC    HA 9406   2.525   6.353   5.800 -1.0105 -0.0601 -0.7795
   71POPC    HB 9407   2.536   6.169   5.806 -0.8901  0.9139  0.3419
   71POPC    C2 9408   2.688   6.258   5.687  0.5400  0.4680  0.6836
   71POPC    HS 9409   2.648   6.322   5.605  2.2623  2.2456  1.1355
   71POPC   O21 9410   2.685   6.122   5.634  0.2182  0.1766 -0.0737
   71POPC   C21 9411   2.732   6.112   5.514 -0.1166 -0.0721 -0.3498
   71POPC   O22 9412   2.733   6.201   5.434 -0.1890 -0.2588 -0.5601
   71POPC   C22 9413   2.783   5.973   5.495  0.1042  0.3389  0.5592
   71POPC   H2R 9414   2.727   5.902   5.560 -0.1485 -0.4031 -0.4413
   71POPC   H2S 9415   2.888   5.968   5.531 -0.3537  2.3490  2.4141
   71POPC    C3 9416   2.835   6.313   5.720 -0.0155  0.2141  0.0925
   71POPC    HX 9417   2.871   6.234   5.790  3.1877  0.0356 -1.5523
   71POPC    HY 9418   2.827   6.404   5.782 -0.7937 -0.8161  1.5607
   71POPC   O31 9419   2.931   6.330   5.614 -0.0556  0.4350  0.5261
   71POPC   C31 9420   2.902   6.435   5.528 -0.5611 -0.4672  0.0305
   71POPC   O32 9421   2.795   6.496   5.528 -0.0160 -0.2193 -0.2261
   71POPC   C32 9422   3.020   6.461   5.440 -0.4340 -0.3689 -0.0036
   71POPC   H2X 9423   3.079   6.369   5.422  0.1383  0.0367 -0.2465
   71POPC   H2Y 9424   3.082   6.539   5.489  2.2155 -1.4058 -1.4826
   71POPC   C23 9425   2.759   5.938   5.348  0.4050  0.6945  0.9679
   71POPC   H3R 9426   2.851   5.882   5.323 -1.0626 -1.5595  0.3663
   71POPC   H3S 9427   2.735   6.019   5.276  1.1908  1.0149  1.0497
   71POPC   C24 9428   2.655   5.830   5.328  0.2785 -0.5071  0.1964
   71POPC   H4R 9429   2.554   5.877   5.337  0.5169  0.0511  0.0303
   71POPC   H4S 9430   2.661   5.737   5.388 -1.6498 -1.4171 -0.9157
   71POPC   C25 9431   2.644   5.780   5.178 -0.3499 -0.2687  0.0083
   71POPC   H5R 9432   2.746   5.762   5.138  1.7504  2.0346  3.7169
   71POPC   H5S 9433   2.593   5.865   5.127 -1.3143  0.3095  1.8584
   71POPC   C26 9434   2.567   5.650   5.179 -0.1572 -0.6977 -0.2932
   71POPC   H6R 9435   2.472   5.670   5.234  0.9845  0.5016  1.3119
   71POPC   H6S 9436   2.612   5.566   5.235  1.0931  0.4422  0.4705
   71POPC   C27 9437   2.534   5.590   5.044  0.8964 -0.4847  0.4919
   71POPC   H7R 9438   2.472   5.498   5.058 -2.0979  1.5991  1.9300
   71POPC   H7S 9439   2.621   5.549   4.987 -1.0974 -0.1686 -3.1446
   71POPC   C28 9440   2.455   5.687   4.946  0.5800 -0.4077  0.3722
   71POPC   H8R 9441   2.502   5.787   4.937 -2.0354  1.1258  2.2697
   71POPC   H8S 9442   2.353   5.697   4.989  0.8035 -1.4944  1.2138
   71POPC   C29 9443   2.435   5.626   4.805 -0.3830 -0.2768 -0.0757
   71POPC   H91 9444   2.476   5.526   4.788  1.2775  0.3432  0.1225
   71POPC  C210 9445   2.383   5.682   4.695  0.0463 -0.3406 -0.2049
   71POPC  H101 9446   2.393   5.629   4.599 -1.1459 -0.5165 -0.2397
   71POPC  C211 9447   2.308   5.814   4.683 -0.9215 -0.2257  0.0901
   71POPC  H11R 9448   2.371   5.902   4.662 -2.3292  0.5093 -1.2783
   71POPC  H11S 9449   2.264   5.841   4.782  0.5866  4.8708 -0.3535
   71POPC  C212 9450   2.190   5.822   4.588  0.1239 -0.4836  0.9483
   71POPC  H12R 9451   2.149   5.924   4.600  1.5678 -0.1149  3.4818
   71POPC  H12S 9452   2.104   5.754   4.609 -1.7431  1.7191  0.7781
   71POPC  C213 9453   2.225   5.801   4.445  0.1366  0.1890  0.0532
   71POPC  H13R 9454   2.129   5.809   4.390  0.6626 -0.9726 -1.0792
   71POPC  H13S 9455   2.262   5.698   4.428 -1.2417 -0.4558  0.8064
   71POPC  C214 9456   2.325   5.891   4.368  0.2726 -1.1235 -0.2378
   71POPC  H14R 9457   2.312   5.863   4.261 -3.0298  0.3127 -0.3269
   71POPC  H14S 9458   2.432   5.886   4.399  0.1225 -0.1766  0.4336
   71POPC  C215 9459   2.278   6.036   4.368  0.2711 -0.0417 -0.2279
   71POPC  H15R 9460   2.289   6.079   4.470 -0.3898  1.3610 -0.7146
   71POPC  H15S 9461   2.168   6.029   4.351  0.1161 -3.5557  1.4059
   71POPC  C216 9462   2.355   6.120   4.264  0.5455 -0.5119  0.9270
   71POPC  H16R 9463   2.300   6.216   4.254  3.0297  0.8268 -1.1605
   71POPC  H16S 9464   2.342   6.083   4.160  0.4142 -0.5392  0.9538
   71POPC  C217 9465   2.507   6.144   4.285  0.5950 -0.1371 -0.3403
   71POPC  H17R 9466   2.559   6.046   4.297  1.0552  0.3446  2.3281
   71POPC  H17S 9467   2.527   6.186   4.386 -1.6536 -0.0518  0.1171
   71POPC  C218 9468   2.584   6.226   4.178  0.0171 -0.8287  0.5433
   71POPC  H18R 9469   2.694   6.236   4.194  0.0490  0.6583 -0.4016
   71POPC  H18S 9470   2.544   6.330   4.172  0.0999 -0.8119  0.2695
   71POPC  H18T 9471   2.575   6.177   4.079  1.0661 -0.8798  0.4547
   71POPC   C33 9472   2.983   6.524   5.299  0.1940  0.3820 -0.1407
   71POPC   H3X 9473   2.921   6.615   5.311  1.9254  1.2561  3.2947
   71POPC   H3Y 9474   2.922   6.450   5.243 -2.2319  1.4302  1.0217
   71POPC   C34 9475   3.105   6.567   5.222 -0.6197 -0.3999 -0.3082
   71POPC   H4X 9476   3.173   6.480   5.208 -1.2218 -0.7013 -1.5167
   71POPC   H4Y 9477   3.148   6.644   5.289 -3.0353 -0.8731  1.9434
   71POPC   C35 9478   3.082   6.630   5.087  0.4019  0.2472 -0.8466
   71POPC   H5X 9479   3.044   6.732   5.107 -0.1382  0.0862 -1.0358
   71POPC   H5Y 9480   3.003   6.570   5.037  1.1252 -2.0834  0.5880
   71POPC   C36 9481   3.206   6.625   5.002  0.1208  0.0304 -0.0173
   71POPC   H6X 9482   3.233   6.522   4.971  1.5141  0.6553 -0.9806
   71POPC   H6Y 9483   3.288   6.662   5.068 -0.1483 -0.7043  0.7419
   71POPC   C37 9484   3.181   6.698   4.868  0.6258 -0.5839 -0.6514
   71POPC   H7X 9485   3.179   6.805   4.898  0.3898 -1.5508  3.2285
   71POPC   H7Y 9486   3.090   6.654   4.822 -0.3677  0.7499 -0.0338
   71POPC   C38 9487   3.293   6.688   4.764 -0.7476 -0.1034 -0.5081
   71POPC   H8X 9488   3.303   6.587   4.720 -1.8848 -0.3069 -0.3335
   71POPC   H8Y 9489   3.391   6.711   4.810 -0.4688  0.4203 -1.3467
   71POPC   C39 9490   3.269   6.772   4.638 -0.1617  0.0376  0.3910
   71POPC   H9X 9491   3.258   6.881   4.658  0.2913  0.0831  0.4107
   71POPC   H9Y 9492   3.182   6.728   4.584  0.0663 -2.4850  1.9076
   71POPC  C310 9493   3.390   6.771   4.539  0.4044  0.1434 -0.2147
   71POPC  H10X 9494   3.470   6.723   4.599 -1.1541 -0.2508  1.6246
   71POPC  H10Y 9495   3.427   6.873   4.517  1.0655 -0.2289 -0.9219
   71POPC  C311 9496   3.371   6.685   4.413  0.2920 -0.6680  0.2746
   71POPC  H11X 9497   3.276   6.706   4.360  0.5552  0.9906  0.3984
   71POPC  H11Y 9498   3.363   6.587   4.465 -2.3626 -1.2444 -1.0689
   71POPC  C312 9499   3.490   6.682   4.321  0.3978  0.2911  0.3389
   71POPC  H12X 9500   3.590   6.663   4.364  1.7137 -0.6862 -2.8709
   71POPC  H12Y 9501   3.498   6.783   4.274  1.0136 -0.7747 -1.9484
   71POPC  C313 9502   3.461   6.575   4.212 -0.1524 -0.1391 -0.4930
   71POPC  H13X 9503   3.353   6.576   4.184 -0.6906  0.3031  1.4640
   71POPC  H13Y 9504   3.483   6.476   4.257  0.9803  0.7367  0.9430
   71POPC  C314 9505   3.548   6.603   4.088  0.0821 -0.5889  0.1243
   71POPC  H14X 9506   3.643   6.646   4.125 -0.1648 -0.8461  1.0774
   71POPC  H14Y 9507   3.499   6.684   4.029 -1.4733 -0.3842  1.6227
   71POPC  C315 9508   3.590   6.478   4.006 -0.7678 -0.1985  0.0882
   71POPC  H15X 9509   3.495   6.429   3.976 -0.1989 -1.3073  0.0408
   71POPC  H15Y 9510   3.663   6.413   4.059 -0.0647 -0.0238 -0.6685
   71POPC  C316 9511   3.646   6.522   3.878 -0.1478 -1.0161 -0.3766
   71POPC  H16X 9512   3.662   6.432   3.816  0.1592 -1.6003  0.5309
   71POPC  H16Y 9513   3.747   6.566   3.890 -1.7621  2.4258  2.9984
   71POPC  H16Z 9514   3.583   6.595   3.823  0.9399 -0.8481 -1.4448
   72POPC     N 9515   6.233   5.587   5.643  0.2084 -0.3845 -0.2197
   72POPC   C12 9516   6.093   5.539   5.626 -0.2530 -0.1708 -0.1640
   72POPC  H12A 9517   6.092   5.437   5.661 -0.1458  0.0490  0.4908
   72POPC  H12B 9518   6.074   5.535   5.520  0.7171 -0.6657 -0.3342
   72POPC   C13 9519   6.267   5.577   5.789  0.3523 -0.3297  0.0796
   72POPC  H13A 9520   6.367   5.616   5.796 -0.0944  1.2991 -1.8938
   72POPC  H13B 9521   6.204   5.647   5.842  0.4769 -2.0270  2.6916
   72POPC  H13C 9522   6.258   5.479   5.835 -0.1621  0.0549  0.8233
   72POPC   C14 9523   6.329   5.515   5.553  0.2494  0.2789 -0.3884
   72POPC  H14A 9524   6.311   5.523   5.447  0.1344 -3.2786 -0.7397
   72POPC  H14B 9525   6.432   5.535   5.578  0.8614 -0.7033 -1.9632
   72POPC  H14C 9526   6.318   5.412   5.582  0.3056  0.4006  0.0781
   72POPC   C15 9527   6.243   5.731   5.588  0.2180  0.6346 -0.6909
   72POPC  H15A 9528   6.157   5.786   5.623  0.5371  1.1902 -0.7796
   72POPC  H15B 9529   6.233   5.730   5.480  0.5236 -0.5765 -0.7259
   72POPC  H15C 9530   6.338   5.774   5.616  0.7288 -0.1033 -1.2379
   72POPC   C11 9531   5.972   5.604   5.703  0.2697  0.2206  0.0690
   72POPC  H11A 9532   5.992   5.591   5.811 -1.9690  1.8554  0.7561
   72POPC  H11B 9533   5.882   5.545   5.676 -0.1723  0.7491  0.3679
   72POPC     P 9534   5.824   5.818   5.689  0.4773 -0.0481 -0.5019
   72POPC   O13 9535   5.840   5.967   5.675  0.0187  0.1451  0.0274
   72POPC   O14 9536   5.751   5.775   5.811  0.0236 -0.0692  0.0655
   72POPC   O12 9537   5.960   5.740   5.665 -0.1762  0.4653  0.3133
   72POPC   O11 9538   5.727   5.768   5.574 -0.5019 -0.1191  0.0558
   72POPC    C1 9539   5.781   5.712   5.453 -1.1009  0.0968 -0.6585
   72POPC    HA 9540   5.698   5.689   5.383 -1.9040  1.8271 -0.3334
   72POPC    HB 9541   5.820   5.610   5.471 -2.4673 -0.4413 -0.6116
   72POPC    C2 9542   5.872   5.796   5.367  0.3424 -0.7519  0.6259
   72POPC    HS 9543   5.967   5.805   5.424  1.9155 -0.5245 -1.8305
   72POPC   O21 9544   5.798   5.921   5.345  0.4116  0.3257  0.1161
   72POPC   C21 9545   5.876   6.024   5.309  0.1569  0.5242  0.2670
   72POPC   O22 9546   5.995   6.023   5.305 -0.8372 -0.1046  0.5423
   72POPC   C22 9547   5.789   6.148   5.278  0.0997  0.6828  0.8677
   72POPC   H2R 9548   5.768   6.206   5.371  1.2018  2.9362 -0.1972
   72POPC   H2S 9549   5.696   6.106   5.236  0.3434 -0.6846  1.6299
   72POPC    C3 9550   5.893   5.725   5.230  0.8581 -0.1705 -0.1468
   72POPC    HX 9551   5.794   5.718   5.180 -0.8085  0.3211  2.8100
   72POPC    HY 9552   5.915   5.618   5.249 -0.5736 -0.2604  1.2445
   72POPC   O31 9553   5.992   5.781   5.144  0.3885  0.3981 -0.5141
   72POPC   C31 9554   6.120   5.766   5.187 -0.0382 -0.5044 -0.4471
   72POPC   O32 9555   6.155   5.698   5.281  0.0080 -0.6489  1.2701
   72POPC   C32 9556   6.201   5.845   5.084 -1.1263  0.2182  0.5149
   72POPC   H2X 9557   6.137   5.896   5.009  2.0908  3.6175 -0.1983
   72POPC   H2Y 9558   6.267   5.769   5.035  0.0761 -0.6019  3.1897
   72POPC   C23 9559   5.854   6.223   5.162  0.0691 -0.8056 -0.4130
   72POPC   H3R 9560   5.873   6.150   5.080 -0.1076 -1.4464  0.1070
   72POPC   H3S 9561   5.955   6.256   5.195 -0.0661 -1.1491  0.3569
   72POPC   C24 9562   5.770   6.330   5.100  0.6069 -0.7369  0.7960
   72POPC   H4R 9563   5.755   6.408   5.178  0.2935 -0.9676  0.9697
   72POPC   H4S 9564   5.674   6.292   5.058  0.3602 -0.3936  1.0310
   72POPC   C25 9565   5.848   6.418   4.997 -0.2186 -0.0228 -0.1145
   72POPC   H5R 9566   5.952   6.435   5.029  0.3980 -1.8649 -1.0021
   72POPC   H5S 9567   5.803   6.520   4.987 -0.9144 -0.4863 -2.2377
   72POPC   C26 9568   5.852   6.361   4.854 -0.1215 -0.1936 -0.1083
   72POPC   H6R 9569   5.747   6.358   4.820  0.2327  0.7162 -1.3462
   72POPC   H6S 9570   5.903   6.262   4.842 -1.0818 -1.1917  3.1221
   72POPC   C27 9571   5.928   6.452   4.743 -0.2549  0.4871  0.4344
   72POPC   H7R 9572   5.947   6.398   4.647 -0.0347  0.8716  0.2558
   72POPC   H7S 9573   6.022   6.482   4.795 -0.0428 -1.6399  1.3434
   72POPC   C28 9574   5.845   6.578   4.713 -0.1635 -0.1486  0.2170
   72POPC   H8R 9575   5.833   6.631   4.810  1.0264  1.1582 -0.3126
   72POPC   H8S 9576   5.740   6.568   4.679 -0.3005  3.7388 -1.0796
   72POPC   C29 9577   5.938   6.671   4.632  0.0080  0.3938  0.1451
   72POPC   H91 9578   5.970   6.756   4.694 -0.4528  2.4112 -2.2188
   72POPC  C210 9579   5.949   6.678   4.497 -0.5202 -0.3885  0.7179
   72POPC  H101 9580   6.031   6.737   4.455 -0.4073 -1.4951 -0.6522
   72POPC  C211 9581   5.886   6.580   4.395  0.3253 -0.5936  0.1907
   72POPC  H11R 9582   5.831   6.496   4.444 -1.4642 -0.0973 -0.8807
   72POPC  H11S 9583   5.959   6.520   4.336 -1.6197 -1.8253 -1.0764
   72POPC  C212 9584   5.795   6.653   4.292 -0.4183 -0.0174  0.7415
   72POPC  H12R 9585   5.726   6.719   4.347 -2.9589 -1.7913 -0.1098
   72POPC  H12S 9586   5.731   6.580   4.238  0.0944  1.6335 -2.3717
   72POPC  C213 9587   5.878   6.730   4.191  0.6509  0.5007 -0.3134
   72POPC  H13R 9588   5.970   6.669   4.174 -0.6752 -1.5479 -0.5435
   72POPC  H13S 9589   5.907   6.833   4.219 -2.1330  2.0829 -2.7110
   72POPC  C214 9590   5.813   6.733   4.059  0.4395 -0.3143  0.2919
   72POPC  H14R 9591   5.794   6.632   4.017 -0.6367 -0.9396  2.1620
   72POPC  H14S 9592   5.887   6.779   3.991 -0.2493 -0.4019 -0.5359
   72POPC  C215 9593   5.676   6.799   4.044  0.7112  0.2403  0.4156
   72POPC  H15R 9594   5.693   6.908   4.054  0.6008  0.0352  4.0938
   72POPC  H15S 9595   5.605   6.780   4.127  0.9654  3.9245  1.6697
   72POPC  C216 9596   5.611   6.767   3.905 -0.0491 -0.2163  0.4779
   72POPC  H16R 9597   5.556   6.674   3.929  1.4022 -1.0078  0.8572
   72POPC  H16S 9598   5.699   6.734   3.846 -0.9006  0.2038 -1.0703
   72POPC  C217 9599   5.540   6.880   3.829  0.5155  0.1302 -0.6211
   72POPC  H17R 9600   5.630   6.935   3.795  1.7534 -0.8832  0.9045
   72POPC  H17S 9601   5.492   6.948   3.903  2.0089  0.0946  0.4198
   72POPC  C218 9602   5.450   6.842   3.717  0.1072 -0.0787 -0.3851
   72POPC  H18R 9603   5.496   6.767   3.649 -1.6513 -2.3368  0.7718
   72POPC  H18S 9604   5.413   6.929   3.657 -0.2196 -0.1279 -0.2544
   72POPC  H18T 9605   5.356   6.792   3.749  0.1088 -0.9557 -1.6661
   72POPC   C33 9606   6.296   5.940   5.160  0.4075  0.1839  0.3242
   72POPC   H3X 9607   6.380   5.889   5.211  1.1427  3.1488  2.3299
   72POPC   H3Y 9608   6.241   6.006   5.231  0.5368  2.8231 -1.8208
   72POPC   C34 9609   6.367   6.051   5.069 -0.2970  1.2137  0.2258
   72POPC   H4X 9610   6.400   5.996   4.979 -1.9066  0.4219  0.0811
   72POPC   H4Y 9611   6.454   6.090   5.126 -0.6921  0.8378  1.1129
   72POPC   C35 9612   6.283   6.177   5.041  0.4664  0.4100 -0.7083
   72POPC   H5X 9613   6.341   6.269   5.060 -1.4576  1.8201 -1.3398
   72POPC   H5Y 9614   6.202   6.182   5.118  1.4429  0.6541  0.3370
   72POPC   C36 9615   6.224   6.183   4.904 -0.7463 -0.0897  0.0068
   72POPC   H6X 9616   6.172   6.280   4.892  0.0681  0.2441 -1.0191
   72POPC   H6Y 9617   6.143   6.107   4.893 -1.2224  0.5024 -0.6683
   72POPC   C37 9618   6.327   6.173   4.787 -0.8577  0.4391  0.4679
   72POPC   H7X 9619   6.366   6.069   4.779 -0.9519  0.5294 -1.4320
   72POPC   H7Y 9620   6.418   6.234   4.805  1.4910 -1.5180 -3.5600
   72POPC   C38 9621   6.280   6.224   4.650  0.5211  0.0254 -0.0845
   72POPC   H8X 9622   6.245   6.329   4.661 -1.8339 -0.5886 -1.1863
   72POPC   H8Y 9623   6.192   6.164   4.618  0.1130  0.7615 -0.3699
   72POPC   C39 9624   6.387   6.226   4.537  0.2865  0.1774  0.6892
   72POPC   H9X 9625   6.449   6.134   4.550  0.8189  0.6378  1.4671
   72POPC   H9Y 9626   6.465   6.304   4.552  1.2171 -0.7230  0.6559
   72POPC  C310 9627   6.328   6.216   4.396  0.0972 -0.1698 -0.1518
   72POPC  H10X 9628   6.266   6.307   4.385  1.2246  0.9021  1.8442
   72POPC  H10Y 9629   6.255   6.132   4.393 -1.0082  0.6919  1.3959
   72POPC  C311 9630   6.442   6.212   4.299 -0.2039 -0.6615 -0.1960
   72POPC  H11X 9631   6.528   6.272   4.338 -1.4192  1.5238 -0.7003
   72POPC  H11Y 9632   6.422   6.237   4.193  4.0073  0.2624 -0.9674
   72POPC  C312 9633   6.493   6.069   4.276 -0.0953  0.0252  0.7250
   72POPC  H12X 9634   6.398   6.020   4.246 -0.4779  1.4369 -0.5119
   72POPC  H12Y 9635   6.525   6.037   4.378  0.2799 -1.3130  0.2111
   72POPC  C313 9636   6.595   6.061   4.158  0.2117  0.7987 -0.3086
   72POPC  H13X 9637   6.642   6.161   4.158  0.5833  0.6305 -1.1274
   72POPC  H13Y 9638   6.525   6.050   4.072 -0.9834  0.3077  0.6993
   72POPC  C314 9639   6.696   5.944   4.152 -0.6636 -0.4119 -0.3048
   72POPC  H14X 9640   6.653   5.842   4.162 -2.5048  0.2900 -0.7986
   72POPC  H14Y 9641   6.762   5.966   4.239  0.3240  0.5285 -1.2586
   72POPC  C315 9642   6.790   5.961   4.019  0.1598 -0.2839 -0.8720
   72POPC  H15X 9643   6.836   6.060   4.040 -2.7540  0.6891  1.7209
   72POPC  H15Y 9644   6.740   5.977   3.921 -0.0908 -0.9535 -0.8587
   72POPC  C316 9645   6.895   5.854   4.022  0.0561  0.1261 -0.0150
   72POPC  H16X 9646   6.983   5.878   3.960 -0.5855 -3.4023 -2.5784
   72POPC  H16Y 9647   6.854   5.764   3.972  1.9503  0.7118 -2.7963
   72POPC  H16Z 9648   6.939   5.829   4.121 -0.1208 -0.0630  0.0179
   73POPC     N 9649   1.693   0.256   5.995  0.2084  1.1694  0.3874
   73POPC   C12 9650   1.641   0.274   5.859  0.4250 -0.5809  0.5270
   73POPC  H12A 9651   1.591   0.368   5.843 -0.8568 -1.3612 -0.1834
   73POPC  H12B 9652   1.556   0.208   5.852 -0.2886  0.3042  0.7006
   73POPC   C13 9653   1.798   0.353   6.030  0.4744  0.7683 -0.7222
   73POPC  H13A 9654   1.772   0.458   6.022  0.1423  0.7481  0.0752
   73POPC  H13B 9655   1.824   0.332   6.132  0.9696 -0.1316 -1.0177
   73POPC  H13C 9656   1.882   0.339   5.964 -0.9635 -1.2921 -2.2455
   73POPC   C14 9657   1.584   0.267   6.099 -0.3587  0.0410 -0.3379
   73POPC  H14A 9658   1.617   0.252   6.201 -2.0262  1.1296  0.4157
   73POPC  H14B 9659   1.529   0.360   6.106 -1.5682 -0.4686 -2.2115
   73POPC  H14C 9660   1.503   0.196   6.091 -0.1298 -0.4924  1.6909
   73POPC   C15 9661   1.750   0.117   6.010 -0.1426  0.9149  0.2100
   73POPC  H15A 9662   1.783   0.093   6.110 -0.2452 -1.0000 -0.1778
   73POPC  H15B 9663   1.832   0.105   5.941  0.1174  2.4485  0.2346
   73POPC  H15C 9664   1.679   0.039   5.986  1.3990 -0.6776  0.5936
   73POPC   C11 9665   1.732   0.257   5.742  0.3985 -0.0426  0.1515
   73POPC  H11A 9666   1.825   0.316   5.758 -0.3538  1.1108  0.4062
   73POPC  H11B 9667   1.689   0.300   5.648  1.8129  1.6048  0.1997
   73POPC     P 9668   1.649   0.016   5.670  0.4629 -0.1559  0.5109
   73POPC   O13 9669   1.549  -0.016   5.779 -0.3198 -0.1109  0.5720
   73POPC   O14 9670   1.724  -0.095   5.608  0.7644  0.0888  0.2718
   73POPC   O12 9671   1.753   0.117   5.723 -0.0733  0.2891 -0.3820
   73POPC   O11 9672   1.567   0.093   5.555  0.0657  0.1041  0.4632
   73POPC    C1 9673   1.632   0.137   5.436  0.3981 -0.1552 -0.4499
   73POPC    HA 9674   1.643   0.058   5.359 -0.9608  0.3768 -1.2027
   73POPC    HB 9675   1.733   0.176   5.463 -0.6454  2.2120  0.2054
   73POPC    C2 9676   1.541   0.245   5.369 -0.5558 -0.2156 -0.2355
   73POPC    HS 9677   1.479   0.187   5.298  0.7080 -1.4847 -0.3428
   73POPC   O21 9678   1.623   0.342   5.298  0.5686  0.3634 -0.0457
   73POPC   C21 9679   1.678   0.292   5.190  0.0520 -1.4016  0.1181
   73POPC   O22 9680   1.658   0.183   5.143  0.7076 -0.2158 -0.5808
   73POPC   C22 9681   1.754   0.404   5.118 -0.0410  0.0286 -0.0557
   73POPC   H2R 9682   1.851   0.425   5.167  0.2574 -0.5889 -0.3730
   73POPC   H2S 9683   1.688   0.493   5.120 -4.5567 -2.9667  2.7215
   73POPC    C3 9684   1.450   0.316   5.465 -0.4514  0.3101  0.6774
   73POPC    HX 9685   1.521   0.357   5.540 -1.6418  2.4059  0.7361
   73POPC    HY 9686   1.382   0.254   5.529  1.0610 -0.0191  2.0289
   73POPC   O31 9687   1.375   0.414   5.395 -0.0481 -0.2458  0.2020
   73POPC   C31 9688   1.380   0.537   5.446 -0.5237 -0.9672  0.4679
   73POPC   O32 9689   1.456   0.578   5.533  0.1195 -0.2530  0.3817
   73POPC   C32 9690   1.290   0.632   5.365  0.2854  0.2728 -0.1057
   73POPC   H2X 9691   1.233   0.689   5.442  1.9829  0.7649  0.8333
   73POPC   H2Y 9692   1.219   0.569   5.306  0.1793  0.0719  0.2367
   73POPC   C23 9693   1.779   0.367   4.967  0.3239  0.2924  0.3954
   73POPC   H3R 9694   1.685   0.328   4.922  0.8322  0.5450 -0.9360
   73POPC   H3S 9695   1.857   0.288   4.964  0.0560 -0.1110  2.6251
   73POPC   C24 9696   1.813   0.493   4.879  0.3762  0.4742  0.0602
   73POPC   H4R 9697   1.749   0.580   4.903  0.4199  0.5156  0.0277
   73POPC   H4S 9698   1.801   0.477   4.770  2.1733  3.5163 -0.6969
   73POPC   C25 9699   1.962   0.525   4.891  0.0112  0.1484 -0.2213
   73POPC   H5R 9700   2.015   0.428   4.887 -4.1389 -2.3043 -1.7734
   73POPC   H5S 9701   1.985   0.583   4.983  0.9422  1.6152 -1.3362
   73POPC   C26 9702   2.028   0.626   4.790 -0.4532 -1.0246 -0.2835
   73POPC   H6R 9703   2.032   0.580   4.689  0.2188 -0.8134 -0.3543
   73POPC   H6S 9704   2.129   0.655   4.825 -1.0390  1.7001 -0.6050
   73POPC   C27 9705   1.948   0.758   4.783  0.0504  0.6023 -0.4435
   73POPC   H7R 9706   1.937   0.792   4.888  0.7237  0.2041 -0.2361
   73POPC   H7S 9707   1.844   0.744   4.747 -0.5432  2.6096  0.3563
   73POPC   C28 9708   2.024   0.869   4.710  0.2373  0.1980  0.1602
   73POPC   H8R 9709   2.127   0.865   4.751  1.3840  0.6741 -2.5215
   73POPC   H8S 9710   1.977   0.967   4.732  1.3396  0.7060  0.3004
   73POPC   C29 9711   2.029   0.854   4.558 -0.0885 -0.6818 -0.1661
   73POPC   H91 9712   2.031   0.753   4.513 -1.3369 -0.2667 -1.2322
   73POPC  C210 9713   2.062   0.958   4.471 -0.8389  0.4288 -0.3509
   73POPC  H101 9714   2.048   0.934   4.365  3.1425  0.0262 -0.9215
   73POPC  C211 9715   2.101   1.106   4.497 -0.2032  0.5650 -0.6833
   73POPC  H11R 9716   2.211   1.116   4.494 -0.1952  0.4708 -0.7046
   73POPC  H11S 9717   2.080   1.136   4.603 -1.3505 -0.1798 -0.6776
   73POPC  C212 9718   2.039   1.213   4.411 -0.4206 -0.7659 -0.1759
   73POPC  H12R 9719   2.077   1.308   4.454 -0.1165 -1.5927  1.4739
   73POPC  H12S 9720   1.932   1.205   4.440  0.4185 -0.9755  3.3195
   73POPC  C213 9721   2.046   1.201   4.264  0.0580 -0.1150  0.1861
   73POPC  H13R 9722   2.023   1.302   4.224 -0.9929 -1.0659 -1.7764
   73POPC  H13S 9723   1.983   1.125   4.214  1.3082 -0.0832 -1.5450
   73POPC  C214 9724   2.182   1.159   4.214  0.3599  1.0353  0.1196
   73POPC  H14R 9725   2.197   1.058   4.258 -0.1509  0.5477 -0.7867
   73POPC  H14S 9726   2.262   1.215   4.266  1.2470 -0.8286  0.8450
   73POPC  C215 9727   2.199   1.158   4.063 -0.5356 -0.4729  0.1772
   73POPC  H15R 9728   2.300   1.114   4.052  0.6411  2.0285  0.2349
   73POPC  H15S 9729   2.218   1.261   4.024  0.5102 -0.1771  1.4158
   73POPC  C216 9730   2.094   1.072   3.991 -0.0575 -0.1160 -0.1105
   73POPC  H16R 9731   1.992   1.110   4.015 -0.0524  0.6676 -1.2301
   73POPC  H16S 9732   2.094   0.972   4.038  0.0430  0.5132  1.3018
   73POPC  C217 9733   2.118   1.082   3.843  0.1314  0.9688  1.1754
   73POPC  H17R 9734   2.169   1.175   3.809  1.4199 -0.2452 -0.3425
   73POPC  H17S 9735   2.023   1.074   3.786  0.5239  3.6620 -0.0075
   73POPC  C218 9736   2.196   0.970   3.785 -0.1026 -0.0336  0.2145
   73POPC  H18R 9737   2.302   0.974   3.818  0.3405 -1.7741 -0.8630
   73POPC  H18S 9738   2.189   0.979   3.674 -0.7108  0.8794  0.3115
   73POPC  H18T 9739   2.146   0.875   3.812 -0.4551  0.6872  2.2952
   73POPC   C33 9740   1.368   0.723   5.269 -0.2045  0.1334 -0.6769
   73POPC   H3X 9741   1.473   0.741   5.301 -0.5100 -1.7516  1.6956
   73POPC   H3Y 9742   1.318   0.821   5.260  0.9711  0.9948  1.3657
   73POPC   C34 9743   1.381   0.662   5.128 -0.2903 -0.6099 -0.0179
   73POPC   H4X 9744   1.297   0.590   5.123  0.0793 -1.0764  0.4072
   73POPC   H4Y 9745   1.472   0.599   5.121 -1.0516 -1.6901 -0.6085
   73POPC   C35 9746   1.390   0.771   5.016  0.0186 -1.1238 -0.0284
   73POPC   H5X 9747   1.464   0.848   5.047 -0.2542 -1.1953  0.8554
   73POPC   H5Y 9748   1.291   0.819   5.000 -0.4475 -1.7842  0.7846
   73POPC   C36 9749   1.435   0.702   4.888  0.3822  0.1425 -0.2545
   73POPC   H6X 9750   1.372   0.612   4.870 -2.0331  1.6580  0.1467
   73POPC   H6Y 9751   1.537   0.660   4.898  0.2733  0.0700  0.5481
   73POPC   C37 9752   1.438   0.789   4.761  0.9283 -0.3734 -0.9319
   73POPC   H7X 9753   1.495   0.880   4.788  1.3762 -1.1819  0.9854
   73POPC   H7Y 9754   1.332   0.818   4.744 -0.1973 -3.6397 -0.2728
   73POPC   C38 9755   1.492   0.721   4.639 -0.0098  0.5310 -0.0078
   73POPC   H8X 9756   1.601   0.717   4.659  0.5317  1.3229 -2.5053
   73POPC   H8Y 9757   1.484   0.790   4.553  0.7609  1.1799  0.4178
   73POPC   C39 9758   1.449   0.572   4.605  0.0275 -0.2283 -0.5984
   73POPC   H9X 9759   1.350   0.566   4.554 -0.4643 -2.5973  0.4921
   73POPC   H9Y 9760   1.454   0.502   4.692  1.3897 -0.3120 -0.7260
   73POPC  C310 9761   1.562   0.506   4.519 -0.5334  0.1237 -0.1538
   73POPC  H10X 9762   1.537   0.404   4.483 -1.1097  0.7359 -1.5592
   73POPC  H10Y 9763   1.655   0.494   4.579 -0.5891  0.8073  0.0778
   73POPC  C311 9764   1.594   0.588   4.390  0.4106 -0.3041 -0.0176
   73POPC  H11X 9765   1.646   0.679   4.425 -0.4325 -0.1897  0.9839
   73POPC  H11Y 9766   1.511   0.628   4.327  0.3272 -0.8210 -0.2428
   73POPC  C312 9767   1.686   0.509   4.290  0.4061  0.0679  0.0795
   73POPC  H12X 9768   1.611   0.450   4.233 -0.1204  0.8317 -0.0423
   73POPC  H12Y 9769   1.754   0.452   4.357  1.2107  1.8150  0.8095
   73POPC  C313 9770   1.763   0.598   4.201 -0.2342 -0.3420 -0.4542
   73POPC  H13X 9771   1.821   0.670   4.263 -0.9009 -1.2893  1.3288
   73POPC  H13Y 9772   1.702   0.655   4.127  0.7954 -1.2455 -2.0591
   73POPC  C314 9773   1.865   0.519   4.112 -0.0528  0.5623 -0.9891
   73POPC  H14X 9774   1.806   0.461   4.038 -2.8699  1.3593  0.4925
   73POPC  H14Y 9775   1.928   0.450   4.172  3.3981  1.9809 -2.7089
   73POPC  C315 9776   1.954   0.614   4.029  0.2936 -0.8140 -0.8254
   73POPC  H15X 9777   1.885   0.686   3.979 -0.6080 -1.5062 -0.5961
   73POPC  H15Y 9778   2.001   0.569   3.939 -2.2894 -2.2827 -1.5425
   73POPC  C316 9779   2.053   0.695   4.121  1.2135 -0.2556  0.1012
   73POPC  H16X 9780   2.105   0.771   4.060  0.5012  0.9220  0.9276
   73POPC  H16Y 9781   2.120   0.625   4.175  2.8119  2.1736  1.4327
   73POPC  H16Z 9782   1.989   0.749   4.194  1.4254 -0.8514  0.7454
   74POPC     N 9783   2.882   0.274   6.121  0.3324 -0.3833 -0.2455
   74POPC   C12 9784   2.780   0.214   6.025 -0.3921 -0.7867 -0.5354
   74POPC  H12A 9785   2.686   0.197   6.077  0.7883  0.7048  2.3088
   74POPC  H12B 9786   2.812   0.111   6.022  1.3306 -0.3100  0.1108
   74POPC   C13 9787   2.838   0.400   6.171  0.2056 -0.7348 -0.6942
   74POPC  H13A 9788   2.908   0.431   6.247 -2.6542  0.4715  1.6605
   74POPC  H13B 9789   2.819   0.478   6.098 -0.4285 -0.2325 -0.0137
   74POPC  H13C 9790   2.749   0.388   6.231  0.1939  2.4033  0.1066
   74POPC   C14 9791   2.903   0.191   6.240 -0.2521 -0.2729  0.1572
   74POPC  H14A 9792   2.817   0.192   6.305  1.1396  1.0872  2.0595
   74POPC  H14B 9793   2.927   0.087   6.222  1.6204  0.0014  0.8672
   74POPC  H14C 9794   2.982   0.240   6.293  2.5439 -2.6666 -1.4703
   74POPC   C15 9795   3.014   0.287   6.045  0.3668  0.3194 -0.0469
   74POPC  H15A 9796   3.084   0.342   6.106 -1.1932  1.2239  0.9865
   74POPC  H15B 9797   2.996   0.335   5.950 -1.7320 -1.9941 -0.9060
   74POPC  H15C 9798   3.057   0.193   6.015  0.2605  0.5060 -0.8206
   74POPC   C11 9799   2.740   0.273   5.888 -0.0750 -0.4133 -0.1450
   74POPC  H11A 9800   2.676   0.199   5.834 -1.2691  1.7109 -1.7810
   74POPC  H11B 9801   2.830   0.276   5.823 -0.8993 -1.7254 -1.4036
   74POPC     P 9802   2.726   0.535   5.870  0.2852  0.1878  0.0433
   74POPC   O13 9803   2.862   0.526   5.823 -0.4771 -0.3873  0.0473
   74POPC   O14 9804   2.701   0.620   5.985  0.3323 -0.4425 -0.1187
   74POPC   O12 9805   2.670   0.391   5.914 -0.1393  0.3712  0.2149
   74POPC   O11 9806   2.632   0.572   5.752 -0.5136 -0.1217  0.2303
   74POPC    C1 9807   2.653   0.690   5.671 -0.3223  0.0136  0.6210
   74POPC    HA 9808   2.748   0.684   5.614  0.7991 -2.6801  2.5634
   74POPC    HB 9809   2.675   0.776   5.738 -1.3112  0.8769 -0.1302
   74POPC    C2 9810   2.542   0.726   5.579 -0.0301 -0.2313 -0.2547
   74POPC    HS 9811   2.446   0.730   5.635  0.1284 -2.6105  0.2813
   74POPC   O21 9812   2.532   0.623   5.483 -0.2410 -0.2352  0.2809
   74POPC   C21 9813   2.419   0.591   5.431 -0.0880  0.6405 -0.3815
   74POPC   O22 9814   2.306   0.616   5.477 -0.3204 -0.2987  0.3735
   74POPC   C22 9815   2.453   0.501   5.306  0.0685 -0.4095 -0.2238
   74POPC   H2R 9816   2.515   0.414   5.338  0.5849  0.0147 -0.0636
   74POPC   H2S 9817   2.523   0.557   5.241  0.3986 -0.4533  0.0898
   74POPC    C3 9818   2.546   0.869   5.500  0.4049  0.1443  0.1713
   74POPC    HX 9819   2.633   0.858   5.432  1.7809  1.8281  1.5833
   74POPC    HY 9820   2.565   0.952   5.571 -2.0893  0.8370  0.1438
   74POPC   O31 9821   2.428   0.890   5.421  0.1295 -0.1313  0.4187
   74POPC   C31 9822   2.321   0.929   5.492 -0.2945 -0.2667  0.3386
   74POPC   O32 9823   2.308   0.952   5.608 -0.6421 -0.3036  0.1612
   74POPC   C32 9824   2.219   0.943   5.382 -0.8556  0.6126  0.6127
   74POPC   H2X 9825   2.123   0.985   5.418 -0.9543  0.3790  0.6233
   74POPC   H2Y 9826   2.214   0.836   5.352  0.0663  1.0604 -1.3211
   74POPC   C23 9827   2.320   0.461   5.228 -0.3558 -0.1810 -0.3144
   74POPC   H3R 9828   2.280   0.559   5.192  0.5321  0.8087  1.2421
   74POPC   H3S 9829   2.247   0.409   5.293  1.2552 -1.4322  0.5517
   74POPC   C24 9830   2.349   0.356   5.115 -0.0567 -0.0145 -0.0594
   74POPC   H4R 9831   2.386   0.266   5.169 -3.0629 -1.8228 -0.7523
   74POPC   H4S 9832   2.435   0.397   5.058  0.1190 -0.2198  0.0567
   74POPC   C25 9833   2.225   0.334   5.027  0.3798  0.3981  0.7224
   74POPC   H5R 9834   2.187   0.434   4.998  1.4794  0.6639  0.1320
   74POPC   H5S 9835   2.151   0.284   5.093  0.5102 -2.4163 -1.0883
   74POPC   C26 9836   2.266   0.252   4.905  0.1435  0.0803  0.1897
   74POPC   H6R 9837   2.360   0.293   4.863  1.2289 -0.5898  1.8691
   74POPC   H6S 9838   2.182   0.258   4.832  0.9972  0.0634 -0.8257
   74POPC   C27 9839   2.294   0.102   4.943 -0.2552 -0.2242  0.5240
   74POPC   H7R 9840   2.225   0.070   5.024  0.5091 -0.4667  1.0887
   74POPC   H7S 9841   2.390   0.087   4.996  0.1464 -1.3545 -0.4783
   74POPC   C28 9842   2.298   0.010   4.820  0.3935  0.3814 -0.1080
   74POPC   H8R 9843   2.219   0.050   4.752 -2.9855 -1.2407  2.5491
   74POPC   H8S 9844   2.267  -0.090   4.856  1.4651  0.4927  1.1869
   74POPC   C29 9845   2.438   0.019   4.765 -0.6335  0.5778  0.0349
   74POPC   H91 9846   2.515  -0.019   4.834 -0.4952  0.1558 -0.3499
   74POPC  C210 9847   2.485   0.074   4.648  0.0719  0.3423  0.2684
   74POPC  H101 9848   2.586   0.045   4.616 -1.6910 -4.2819 -2.0275
   74POPC  C211 9849   2.394   0.124   4.538  0.0023 -0.3685  0.3749
   74POPC  H11R 9850   2.286   0.101   4.541 -0.6064  2.2769  0.7955
   74POPC  H11S 9851   2.419   0.080   4.439  0.7764  1.3197 -0.2321
   74POPC  C212 9852   2.405   0.277   4.516  0.8431 -0.0106  0.2620
   74POPC  H12R 9853   2.510   0.312   4.512  0.8058  0.4774  2.2280
   74POPC  H12S 9854   2.358   0.318   4.609 -1.5340  2.4587 -1.8535
   74POPC  C213 9855   2.317   0.321   4.400  0.0614  0.0772 -0.2735
   74POPC  H13R 9856   2.282   0.423   4.425 -1.7807 -0.3149 -1.0952
   74POPC  H13S 9857   2.224   0.263   4.379  0.4799 -0.0357 -1.9891
   74POPC  C214 9858   2.394   0.329   4.259  0.1995 -0.0830 -0.0840
   74POPC  H14R 9859   2.454   0.240   4.231 -0.4782 -0.6108  0.1250
   74POPC  H14S 9860   2.468   0.410   4.274  1.1675 -1.0218  0.3357
   74POPC  C215 9861   2.299   0.347   4.147  0.5394  0.7272  1.0833
   74POPC  H15R 9862   2.217   0.419   4.167 -1.4233 -1.8358  2.9961
   74POPC  H15S 9863   2.242   0.252   4.134  2.4931 -0.0932 -3.2513
   74POPC  C216 9864   2.360   0.391   4.009  0.1595 -0.3197  0.4851
   74POPC  H16R 9865   2.421   0.302   3.980  3.3113  1.3991  1.3913
   74POPC  H16S 9866   2.415   0.483   4.036  0.0595  0.5749 -2.0945
   74POPC  C217 9867   2.257   0.434   3.904  0.0906  0.9204 -0.1570
   74POPC  H17R 9868   2.311   0.461   3.811  0.4779  1.7202  0.2945
   74POPC  H17S 9869   2.199   0.523   3.936  2.0471  1.7802  1.1516
   74POPC  C218 9870   2.159   0.317   3.879  0.0292  0.0273 -0.4600
   74POPC  H18R 9871   2.086   0.323   3.962  1.1589 -0.5098  0.6056
   74POPC  H18S 9872   2.215   0.222   3.863  1.0570  0.6069 -0.3352
   74POPC  H18T 9873   2.100   0.341   3.788 -2.0168 -0.4337  0.6783
   74POPC   C33 9874   2.265   1.041   5.270  0.8888 -0.1768  0.5002
   74POPC   H3X 9875   2.361   1.010   5.223  0.8128 -0.4453  0.5240
   74POPC   H3Y 9876   2.296   1.135   5.320  3.2431  0.8017 -2.4289
   74POPC   C34 9877   2.147   1.076   5.171  0.5192 -0.0417  0.4466
   74POPC   H4X 9878   2.049   1.087   5.223 -0.8338  3.9672 -2.4428
   74POPC   H4Y 9879   2.137   0.986   5.107  0.0528 -0.7425  1.4708
   74POPC   C35 9880   2.170   1.205   5.098 -1.1185 -0.6241  0.4409
   74POPC   H5X 9881   2.275   1.213   5.063 -1.2064  0.5239  0.4271
   74POPC   H5Y 9882   2.165   1.282   5.178  2.7104 -0.2169  0.4963
   74POPC   C36 9883   2.067   1.226   4.993  0.3410  0.3067 -0.1627
   74POPC   H6X 9884   1.974   1.262   5.044  0.3469  0.0398  0.0364
   74POPC   H6Y 9885   2.050   1.130   4.941 -0.5795  1.1017 -1.4176
   74POPC   C37 9886   2.119   1.342   4.897 -0.1527  0.1230  0.0010
   74POPC   H7X 9887   2.213   1.312   4.846 -0.0886  1.9641 -1.0257
   74POPC   H7Y 9888   2.144   1.432   4.957  2.6716 -0.4138 -0.2474
   74POPC   C38 9889   2.025   1.390   4.786 -0.0819 -1.4338  0.4314
   74POPC   H8X 9890   1.943   1.429   4.849  0.4144  2.3675 -1.0657
   74POPC   H8Y 9891   1.989   1.311   4.717 -1.1119  0.5418 -1.3891
   74POPC   C39 9892   2.088   1.518   4.732 -0.1009  0.9353  0.0984
   74POPC   H9X 9893   2.162   1.483   4.656  0.3821 -1.5260  1.5826
   74POPC   H9Y 9894   2.147   1.582   4.801  0.5742 -1.3875  1.7931
   74POPC  C310 9895   1.984   1.600   4.658 -0.4383  0.3554 -0.1054
   74POPC  H10X 9896   1.909   1.628   4.736  0.5936 -1.1569  1.5038
   74POPC  H10Y 9897   1.942   1.537   4.578  1.7352  0.6411 -1.5423
   74POPC  C311 9898   2.026   1.730   4.598 -0.8287 -0.8400 -0.0522
   74POPC  H11X 9899   2.057   1.797   4.682 -2.0580 -1.3838  0.8626
   74POPC  H11Y 9900   1.944   1.786   4.548 -0.7722 -0.9399 -0.2592
   74POPC  C312 9901   2.135   1.719   4.488  0.2118  0.1632  0.8260
   74POPC  H12X 9902   2.230   1.669   4.520 -0.6376 -1.9734  0.2076
   74POPC  H12Y 9903   2.168   1.822   4.464 -1.8770  1.1557  1.9138
   74POPC  C313 9904   2.083   1.651   4.361 -0.0225  0.5176  0.8501
   74POPC  H13X 9905   1.997   1.708   4.320  1.2004  0.5885 -1.8003
   74POPC  H13Y 9906   2.061   1.544   4.383 -1.6907  0.0199 -2.6515
   74POPC  C314 9907   2.192   1.651   4.246  0.2720  0.4748  0.0984
   74POPC  H14X 9908   2.224   1.757   4.241  0.0538  0.5357 -0.0061
   74POPC  H14Y 9909   2.134   1.616   4.158  0.6473  0.0658  0.0116
   74POPC  C315 9910   2.305   1.548   4.274 -0.0589 -0.4784 -1.0317
   74POPC  H15X 9911   2.247   1.460   4.307 -1.0386  0.5011 -0.0551
   74POPC  H15Y 9912   2.358   1.578   4.367  0.3057 -1.1777 -1.0042
   74POPC  C316 9913   2.393   1.528   4.155 -0.3478 -0.3303  0.4075
   74POPC  H16X 9914   2.446   1.625   4.161 -1.1766  0.1446  0.2857
   74POPC  H16Y 9915   2.341   1.536   4.057 -0.7519 -1.7831  0.4788
   74POPC  H16Z 9916   2.454   1.436   4.162 -1.1680 -0.8255  1.3390
   75POPC     N 9917   0.736   7.520   5.535 -0.1340  0.1853  0.1046
   75POPC   C12 9918   0.606   7.593   5.571 -1.0841  0.1328 -0.5226
   75POPC  H12A 9919   0.614   7.691   5.525 -1.0900  0.8191  0.8716
   75POPC  H12B 9920   0.598   7.622   5.675 -0.5304  1.6693 -0.8819
   75POPC   C13 9921   0.855   7.603   5.584  0.2120 -0.2390 -0.1365
   75POPC  H13A 9922   0.818   7.639   5.679 -0.9937 -0.8039 -0.3716
   75POPC  H13B 9923   0.934   7.531   5.601  0.4663  0.1316  0.2839
   75POPC  H13C 9924   0.884   7.690   5.529 -1.2183  0.2675 -0.1333
   75POPC   C14 9925   0.742   7.381   5.594 -0.1445  0.3239  0.2368
   75POPC  H14A 9926   0.730   7.372   5.701  0.5790 -1.9736  0.1925
   75POPC  H14B 9927   0.669   7.315   5.547 -0.2767 -1.2736  2.5305
   75POPC  H14C 9928   0.838   7.333   5.586  0.3376  0.7178  3.0159
   75POPC   C15 9929   0.742   7.506   5.384  0.2383 -0.7346  0.0512
   75POPC  H15A 9930   0.725   7.598   5.331  0.2518 -0.6110  0.2593
   75POPC  H15B 9931   0.674   7.433   5.343 -0.3479  0.4435 -1.1332
   75POPC  H15C 9932   0.840   7.476   5.351 -0.0463 -2.8381  0.9486
   75POPC   C11 9933   0.472   7.530   5.527 -0.4968  0.6135 -0.2348
   75POPC  H11A 9934   0.461   7.499   5.422 -2.8829 -0.3025  0.2383
   75POPC  H11B 9935   0.396   7.611   5.526  0.2379  1.3163 -1.1427
   75POPC     P 9936   0.379   7.440   5.748  0.5190 -0.1249 -0.4401
   75POPC   O13 9937   0.470   7.529   5.822  0.4344 -0.1984 -0.3252
   75POPC   O14 9938   0.345   7.314   5.815  0.1404 -0.0361  0.0094
   75POPC   O12 9939   0.446   7.412   5.606 -0.0028  0.7364 -0.1023
   75POPC   O11 9940   0.253   7.523   5.705  0.2360  0.0294 -0.5251
   75POPC    C1 9941   0.119   7.479   5.721  0.2059 -0.2255 -0.6285
   75POPC    HA 9942   0.056   7.567   5.698  0.5411  0.3261  0.4794
   75POPC    HB 9943   0.094   7.458   5.827 -1.0145  1.0459 -0.6489
   75POPC    C2 9944   0.083   7.363   5.634  0.2444 -0.1994 -0.0971
   75POPC    HS 9945   0.147   7.275   5.655  1.4191  0.3483 -1.2063
   75POPC   O21 9946   0.095   7.409   5.494  0.1303  0.2511 -0.1027
   75POPC   C21 9947   0.153   7.324   5.412  0.0950 -0.1714  0.0147
   75POPC   O22 9948   0.189   7.209   5.435  0.2582  0.3912 -0.1490
   75POPC   C22 9949   0.176   7.397   5.283 -0.7692  0.2538 -0.2937
   75POPC   H2R 9950   0.252   7.473   5.308 -1.2059  0.3278  0.8764
   75POPC   H2S 9951   0.081   7.451   5.267 -0.3994  0.8001 -0.6647
   75POPC    C3 9952  -0.062   7.314   5.654 -0.0025 -0.0752 -0.1177
   75POPC    HX 9953  -0.127   7.405   5.655  1.0952  0.7463 -1.0030
   75POPC    HY 9954  -0.071   7.272   5.757 -1.6641 -1.5650 -0.8077
   75POPC   O31 9955  -0.101   7.222   5.551 -0.1808  0.4513 -0.5326
   75POPC   C31 9956  -0.083   7.089   5.579  0.4133 -0.3209 -0.0772
   75POPC   O32 9957  -0.034   7.045   5.679  0.1658  0.0704 -0.2558
   75POPC   C32 9958  -0.163   7.004   5.483 -0.2819  0.3810  0.1482
   75POPC   H2X 9959  -0.108   6.993   5.387  0.9547  0.0030  0.8779
   75POPC   H2Y 9960  -0.261   7.054   5.466 -1.2699 -1.6033 -0.3372
   75POPC   C23 9961   0.212   7.310   5.159 -0.0786 -0.0668  0.0798
   75POPC   H3R 9962   0.134   7.235   5.135  0.9683 -0.3943 -2.7449
   75POPC   H3S 9963   0.297   7.249   5.197  0.5886  0.9277  0.2487
   75POPC   C24 9964   0.265   7.385   5.031  0.5616  0.9200 -0.1788
   75POPC   H4R 9965   0.331   7.471   5.057  1.4998  0.3408 -0.6247
   75POPC   H4S 9966   0.176   7.432   4.982 -1.4007 -1.6007  0.7368
   75POPC   C25 9967   0.345   7.290   4.945  0.0581 -0.1120 -0.2796
   75POPC   H5R 9968   0.287   7.198   4.922 -0.2932  0.1996 -0.6665
   75POPC   H5S 9969   0.433   7.273   5.011 -0.9201 -1.5197  0.7252
   75POPC   C26 9970   0.386   7.349   4.815 -0.1607 -0.4745 -0.1325
   75POPC   H6R 9971   0.463   7.428   4.831 -0.1732 -0.5339  0.2094
   75POPC   H6S 9972   0.294   7.388   4.765 -1.2789 -2.8705 -0.0929
   75POPC   C27 9973   0.431   7.227   4.735  0.3561 -0.7952  0.8852
   75POPC   H7R 9974   0.350   7.151   4.740  1.2561 -1.6948  2.6913
   75POPC   H7S 9975   0.523   7.194   4.788  0.0187  1.8380  3.4229
   75POPC   C28 9976   0.451   7.247   4.582 -0.5244  0.2920  0.2955
   75POPC   H8R 9977   0.352   7.272   4.537  0.1592  0.9888 -0.8769
   75POPC   H8S 9978   0.474   7.150   4.533 -0.8277  1.0889 -1.5078
   75POPC   C29 9979   0.548   7.360   4.555  0.2105  0.1964  0.2921
   75POPC   H91 9980   0.622   7.369   4.636  0.6282 -0.5958  0.0110
   75POPC  C210 9981   0.550   7.442   4.448 -0.4879 -0.5304  0.4616
   75POPC  H101 9982   0.628   7.519   4.435  0.7113 -1.8378 -0.4692
   75POPC  C211 9983   0.456   7.433   4.329 -0.4020  0.5998  0.4527
   75POPC  H11R 9984   0.375   7.508   4.320 -0.5193  0.2365 -2.6635
   75POPC  H11S 9985   0.416   7.329   4.326  0.7419  0.0159  2.7917
   75POPC  C212 9986   0.536   7.456   4.191 -0.2993 -0.6745  0.4538
   75POPC  H12R 9987   0.469   7.430   4.106  0.1450  1.3363 -0.5848
   75POPC  H12S 9988   0.622   7.385   4.193 -0.4654 -0.9072 -0.1839
   75POPC  C213 9989   0.585   7.608   4.166 -0.1508 -0.3425 -0.6943
   75POPC  H13R 9990   0.644   7.636   4.255  0.7833  0.8407 -1.6660
   75POPC  H13S 9991   0.494   7.671   4.159  1.5700  2.3218 -0.2442
   75POPC  C214 9992   0.680   7.636   4.048 -0.0864 -0.1439  0.4168
   75POPC  H14R 9993   0.616   7.623   3.958  2.2035  1.9735 -1.6622
   75POPC  H14S 9994   0.770   7.571   4.045  0.7432  0.9969 -0.1249
   75POPC  C215 9995   0.736   7.775   4.058 -0.5652 -0.4831 -1.1122
   75POPC  H15R 9996   0.791   7.794   4.153 -2.1669 -2.2437  0.2297
   75POPC  H15S 9997   0.651   7.846   4.050 -0.9677 -1.0317 -1.7632
   75POPC  C216 9998   0.837   7.810   3.948 -0.2559  0.5710  0.8645
   75POPC  H16R 9999   0.787   7.801   3.849  0.8968  1.6110  0.1565
   75POPC  H16S10000   0.917   7.733   3.944 -0.5420  0.3139 -1.1447
   75POPC  C21710001   0.890   7.951   3.963  0.0618  0.2336 -0.2888
   75POPC  H17R10002   0.901   7.980   4.070  1.0894  0.4877 -0.4567
   75POPC  H17S10003   0.813   8.027   3.937 -1.4867 -1.5302 -1.0200
   75POPC  C21810004   1.023   7.975   3.893  0.0893  0.3084 -0.9420
   75POPC  H18R10005   1.002   7.971   3.784  0.6882 -0.8249 -1.0362
   75POPC  H18S10006   1.083   7.887   3.927 -0.9577  0.1836  0.6801
   75POPC  H18T10007   1.077   8.071   3.910  0.3819  0.0218 -0.1995
   75POPC   C3310008  -0.194   6.869   5.549 -0.1421  0.1148 -0.3093
   75POPC   H3X10009  -0.258   6.887   5.638  0.7059  1.4392  0.0723
   75POPC   H3Y10010  -0.100   6.816   5.575  1.4450  2.2218 -1.3856
   75POPC   C3410011  -0.270   6.774   5.463  0.3924 -0.1946  0.5558
   75POPC   H4X10012  -0.369   6.812   5.429  0.8571  0.3519 -0.2208
   75POPC   H4Y10013  -0.292   6.692   5.535  0.0595  1.1524  2.0448
   75POPC   C3510014  -0.189   6.716   5.346 -0.4261  0.3174  0.3082
   75POPC   H5X10015  -0.086   6.696   5.383  0.0064 -1.1671 -1.5111
   75POPC   H5Y10016  -0.177   6.790   5.264  1.0113 -0.5330 -0.2806
   75POPC   C3610017  -0.240   6.586   5.274  0.5816  0.4919  0.0839
   75POPC   H6X10018  -0.343   6.607   5.238 -0.0325 -1.6850  0.4751
   75POPC   H6Y10019  -0.244   6.502   5.346 -2.0754  0.9326  0.5640
   75POPC   C3710020  -0.149   6.536   5.159 -0.4523 -0.6886  0.4443
   75POPC   H7X10021  -0.058   6.487   5.200 -1.2810 -1.5848  1.2555
   75POPC   H7Y10022  -0.114   6.617   5.091 -1.3923 -1.2748 -0.7658
   75POPC   C3810023  -0.242   6.450   5.064 -0.2423 -0.1066  0.1163
   75POPC   H8X10024  -0.327   6.514   5.030 -1.8141 -2.1947 -0.1109
   75POPC   H8Y10025  -0.286   6.366   5.121 -0.2150 -0.2722 -0.1046
   75POPC   C3910026  -0.145   6.399   4.955  0.0158  0.2085 -0.5910
   75POPC   H9X10027  -0.084   6.317   4.999  0.4306  0.9981  0.3498
   75POPC   H9Y10028  -0.077   6.465   4.897  1.2965 -1.7731 -1.4282
   75POPC  C31010029  -0.230   6.340   4.841  0.0492 -0.1500 -0.1027
   75POPC  H10X10030  -0.293   6.255   4.878 -2.7765  1.3395 -1.1605
   75POPC  H10Y10031  -0.167   6.295   4.762 -0.9077  0.7087 -1.3912
   75POPC  C31110032  -0.306   6.442   4.763  0.3621 -0.3353 -1.1924
   75POPC  H11X10033  -0.238   6.529   4.753  3.9405 -2.3172  2.5416
   75POPC  H11Y10034  -0.390   6.483   4.823  0.5205 -2.4666  0.6181
   75POPC  C31210035  -0.369   6.391   4.631  0.4820 -0.7002  0.0046
   75POPC  H12X10036  -0.292   6.333   4.576 -0.1732 -1.2191 -0.3843
   75POPC  H12Y10037  -0.408   6.477   4.572  0.4889 -0.0440  0.9385
   75POPC  C31310038  -0.479   6.284   4.653 -0.7340 -0.3997  1.0024
   75POPC  H13X10039  -0.552   6.328   4.724 -1.8445 -0.8022  0.1449
   75POPC  H13Y10040  -0.424   6.198   4.695 -0.9280 -1.1880 -0.2911
   75POPC  C31410041  -0.543   6.266   4.518 -0.3754  0.3790 -0.0473
   75POPC  H14X10042  -0.467   6.214   4.454 -0.1476 -2.1577  2.1210
   75POPC  H14Y10043  -0.560   6.358   4.459  0.8626 -0.0627 -1.1691
   75POPC  C31510044  -0.660   6.187   4.534 -0.1023 -0.5032  0.3759
   75POPC  H15X10045  -0.726   6.243   4.603  1.5904  0.8660  0.9675
   75POPC  H15Y10046  -0.638   6.092   4.587  1.3866 -0.0003  0.7143
   75POPC  C31610047  -0.740   6.164   4.405 -0.0558 -0.5266 -0.2651
   75POPC  H16X10048  -0.684   6.093   4.340  0.2271 -0.0447 -0.5482
   75POPC  H16Y10049  -0.756   6.255   4.344 -0.5791  1.1897  2.2738
   75POPC  H16Z10050  -0.827   6.098   4.426  1.1801 -2.5246 -1.1489
   76POPC     N10051   2.440   7.622   5.571 -0.2090  0.0044  0.3216
   76POPC   C1210052   2.422   7.477   5.562  0.0057  0.3101 -0.0167
   76POPC  H12A10053   2.491   7.441   5.636  1.6954  2.9687 -0.2036
   76POPC  H12B10054   2.442   7.442   5.462 -1.5057 -1.8162  0.3555
   76POPC   C1310055   2.584   7.649   5.558 -0.5137  0.4846  0.2808
   76POPC  H13A10056   2.638   7.594   5.483  0.5278 -0.7719  1.8856
   76POPC  H13B10057   2.600   7.756   5.560  2.1569  0.2682 -2.4039
   76POPC  H13C10058   2.631   7.612   5.648 -2.6603 -0.5264  1.0581
   76POPC   C1410059   2.370   7.679   5.455  0.0738 -0.1289  0.4422
   76POPC  H14A10060   2.380   7.786   5.464  2.0397 -0.1770 -0.4985
   76POPC  H14B10061   2.424   7.664   5.362  0.0310 -0.5215  0.4798
   76POPC  H14C10062   2.270   7.642   5.444  0.6573 -1.9828  0.9478
   76POPC   C1510063   2.394   7.680   5.702 -0.8749  0.0266  0.7562
   76POPC  H15A10064   2.463   7.643   5.776 -0.1074  0.9252  0.5145
   76POPC  H15B10065   2.290   7.658   5.721 -0.9667  0.2442  0.5140
   76POPC  H15C10066   2.398   7.788   5.692 -0.8080 -0.2149 -3.9073
   76POPC   C1110067   2.286   7.411   5.598 -0.3255 -0.2009 -0.7102
   76POPC  H11A10068   2.276   7.426   5.708  1.9688 -0.0300 -0.4728
   76POPC  H11B10069   2.305   7.302   5.591  0.0071 -0.2545  0.6343
   76POPC     P10070   2.107   7.360   5.418  0.4736 -0.2984  0.2177
   76POPC   O1310071   2.046   7.443   5.312 -0.0410  0.2007 -0.2208
   76POPC   O1410072   2.017   7.263   5.482 -0.1065  0.1467  0.0361
   76POPC   O1210073   2.177   7.459   5.518  0.5074 -0.4847 -0.2928
   76POPC   O1110074   2.229   7.287   5.350 -0.4491 -0.3556 -0.1456
   76POPC    C110075   2.302   7.349   5.242 -0.5785 -0.9926 -0.1654
   76POPC    HA10076   2.402   7.301   5.238 -0.5317 -0.8456 -1.0242
   76POPC    HB10077   2.322   7.457   5.256 -3.6510 -0.2466 -0.7599
   76POPC    C210078   2.236   7.326   5.103  0.2385 -0.3384 -0.7916
   76POPC    HS10079   2.158   7.404   5.091 -1.3665 -1.2793  2.3767
   76POPC   O2110080   2.185   7.197   5.107  1.1031 -0.0049  0.3901
   76POPC   C2110081   2.051   7.181   5.082 -0.8097  0.4217 -0.5398
   76POPC   O2210082   1.979   7.278   5.055  0.2618  0.3932 -0.0446
   76POPC   C2210083   2.008   7.032   5.098  0.0443  0.0345  0.3269
   76POPC   H2R10084   2.046   6.997   5.197 -0.8438  1.0269  1.0458
   76POPC   H2S10085   2.053   6.972   5.016  0.1492 -0.9416  1.0826
   76POPC    C310086   2.351   7.330   4.989  0.5973 -0.1186 -0.1720
   76POPC    HX10087   2.415   7.244   5.018 -0.1979 -0.8464 -0.5465
   76POPC    HY10088   2.394   7.431   5.004  0.0429  0.4243 -2.0199
   76POPC   O3110089   2.294   7.314   4.851  0.0253  0.4873 -0.3537
   76POPC   C3110090   2.250   7.429   4.802  0.5575 -0.9110 -0.7822
   76POPC   O3210091   2.252   7.539   4.862  0.0803 -0.0076  0.1096
   76POPC   C3210092   2.193   7.412   4.663  0.4932  0.8285  0.0872
   76POPC   H2X10093   2.228   7.506   4.615  1.6468 -0.7641 -2.4563
   76POPC   H2Y10094   2.084   7.406   4.683 -0.4139  0.2633 -4.0894
   76POPC   C2310095   1.855   7.028   5.085  0.8213 -0.3419  0.5835
   76POPC   H3R10096   1.816   7.095   5.164  0.8647 -0.5392  0.7735
   76POPC   H3S10097   1.805   6.933   5.114 -0.8594  0.2980 -0.0865
   76POPC   C2410098   1.794   7.070   4.948 -0.6441 -0.0413  0.0303
   76POPC   H4R10099   1.747   7.170   4.962 -3.2124 -1.1012 -0.3051
   76POPC   H4S10100   1.715   6.994   4.926 -0.6172 -0.1991  0.4824
   76POPC   C2510101   1.892   7.065   4.825  0.4267 -0.1591  0.1765
   76POPC   H5R10102   1.951   6.972   4.837  0.6810  0.1432  1.3733
   76POPC   H5S10103   1.969   7.145   4.828 -1.7803  2.0762  0.7152
   76POPC   C2610104   1.819   7.071   4.694  0.7431  0.3305  0.4442
   76POPC   H6R10105   1.757   7.162   4.688 -2.0798 -1.5563 -0.8684
   76POPC   H6S10106   1.750   6.984   4.699 -0.6125  1.3800  0.3922
   76POPC   C2710107   1.911   7.067   4.571  0.2775  0.5016  0.3681
   76POPC   H7R10108   1.962   6.969   4.582 -0.3422  0.0857 -0.4492
   76POPC   H7S10109   1.990   7.143   4.588  0.7428  0.6271 -2.0902
   76POPC   C2810110   1.839   7.084   4.432 -0.0670 -0.0862 -0.1164
   76POPC   H8R10111   1.787   7.182   4.426  0.0085  0.0722  1.5668
   76POPC   H8S10112   1.750   7.019   4.418  0.4663 -0.4608 -2.1410
   76POPC   C2910113   1.930   7.067   4.311  0.2344  0.3229  1.2837
   76POPC   H9110114   1.998   7.151   4.291  1.1558 -0.9575 -1.4031
   76POPC  C21010115   1.911   6.986   4.200  0.6973 -0.1791 -1.2105
   76POPC  H10110116   1.978   6.995   4.114  1.3445  0.6101 -0.6420
   76POPC  C21110117   1.793   6.889   4.186  0.3926  0.3901  0.2329
   76POPC  H11R10118   1.701   6.939   4.223  1.8517  1.5814  2.4371
   76POPC  H11S10119   1.807   6.796   4.245  4.3566 -0.5265 -1.8198
   76POPC  C21210120   1.756   6.852   4.042 -0.5022 -0.3142  0.4560
   76POPC  H12R10121   1.818   6.765   4.011  1.7884  1.1437  0.7301
   76POPC  H12S10122   1.770   6.939   3.975 -1.7083  1.7518  2.7190
   76POPC  C21310123   1.604   6.802   4.045 -0.2031  0.2686  0.1450
   76POPC  H13R10124   1.546   6.870   4.111 -3.0922 -0.0738 -1.8523
   76POPC  H13S10125   1.597   6.697   4.082 -2.9702  0.0507 -0.7072
   76POPC  C21410126   1.546   6.790   3.906 -0.3694 -0.4904 -0.1922
   76POPC  H14R10127   1.440   6.758   3.916 -0.2616 -0.5091  1.0202
   76POPC  H14S10128   1.533   6.897   3.877 -0.2471  0.1756  2.0419
   76POPC  C21510129   1.631   6.708   3.809  0.3777  0.1700  0.1735
   76POPC  H15R10130   1.650   6.603   3.840  0.0302  0.1676  0.3912
   76POPC  H15S10131   1.732   6.752   3.804  0.2426  0.3892 -0.7166
   76POPC  C21610132   1.564   6.698   3.671 -0.0397  0.5781  0.1083
   76POPC  H16R10133   1.455   6.684   3.688 -0.1019  1.2622  0.3126
   76POPC  H16S10134   1.586   6.601   3.622  0.5331  0.8193 -0.1179
   76POPC  C21710135   1.589   6.808   3.565 -0.0871  0.1643 -0.0996
   76POPC  H17R10136   1.558   6.909   3.600  0.2834 -0.3547  1.8781
   76POPC  H17S10137   1.694   6.821   3.530  0.5798 -1.7765  0.9955
   76POPC  C21810138   1.511   6.775   3.430 -0.6022 -0.1724 -0.8065
   76POPC  H18R10139   1.546   6.842   3.349 -0.7385 -0.1269 -0.8281
   76POPC  H18S10140   1.405   6.798   3.455 -0.7647 -1.2589 -0.4507
   76POPC  H18T10141   1.518   6.665   3.414  2.5252 -0.9287  3.6853
   76POPC   C3310142   2.250   7.298   4.576 -0.7409 -0.1503 -0.4612
   76POPC   H3X10143   2.232   7.206   4.637  2.3308 -0.6809 -0.1997
   76POPC   H3Y10144   2.360   7.292   4.563 -0.4538  0.1977  1.4762
   76POPC   C3410145   2.162   7.289   4.450 -0.0629 -0.1304 -0.1588
   76POPC   H4X10146   2.054   7.308   4.470 -0.1352 -1.2980  0.7186
   76POPC   H4Y10147   2.167   7.180   4.425 -2.0209 -0.0577 -1.0599
   76POPC   C3510148   2.217   7.373   4.338 -0.9023  0.1741 -0.1259
   76POPC   H5X10149   2.220   7.480   4.368  0.7382 -0.0042  0.4542
   76POPC   H5Y10150   2.148   7.366   4.251  1.1388  0.4475 -1.8683
   76POPC   C3610151   2.354   7.322   4.290 -0.1007  0.3473  0.3977
   76POPC   H6X10152   2.337   7.221   4.247 -0.0415 -0.5749  2.4322
   76POPC   H6Y10153   2.420   7.298   4.376  0.5088  0.4389 -0.0424
   76POPC   C3710154   2.431   7.427   4.209  0.0890  0.2965  0.0260
   76POPC   H7X10155   2.422   7.520   4.268  0.6642  1.2540 -1.3469
   76POPC   H7Y10156   2.385   7.451   4.111 -0.0279  0.6161  0.1579
   76POPC   C3810157   2.585   7.407   4.194  0.1508  0.4826  0.1979
   76POPC   H8X10158   2.595   7.301   4.165  0.6537 -0.4296  3.2952
   76POPC   H8Y10159   2.631   7.418   4.295 -0.5102  2.0083  0.3687
   76POPC   C3910160   2.645   7.508   4.101 -0.2783  0.9475  0.2052
   76POPC   H9X10161   2.638   7.606   4.152 -1.8451  0.1391  1.6649
   76POPC   H9Y10162   2.587   7.508   4.006  0.7703 -1.1065 -0.4986
   76POPC  C31010163   2.790   7.477   4.054 -1.0144 -0.3340  0.0133
   76POPC  H10X10164   2.792   7.367   4.038  0.4178 -0.7068  2.3166
   76POPC  H10Y10165   2.870   7.501   4.127 -0.3059 -0.3941 -0.7328
   76POPC  C31110166   2.815   7.545   3.920 -1.0733  0.4806  0.3925
   76POPC  H11X10167   2.745   7.514   3.840 -0.6797  0.1608  0.1653
   76POPC  H11Y10168   2.916   7.517   3.883 -0.6066 -0.0570  1.9687
   76POPC  C31210169   2.821   7.701   3.915 -0.2446  0.0040  0.1387
   76POPC  H12X10170   2.724   7.745   3.944  0.9737  1.5441  2.1652
   76POPC  H12Y10171   2.841   7.727   3.808 -0.3345 -3.3824 -0.7993
   76POPC  C31310172   2.927   7.761   4.000 -0.1404 -0.0010 -1.5714
   76POPC  H13X10173   3.012   7.690   3.995 -1.6687 -1.9877 -0.9243
   76POPC  H13Y10174   2.895   7.776   4.105 -0.1116  0.3086 -1.6075
   76POPC  C31410175   2.980   7.893   3.945  0.1988  0.4330 -0.0296
   76POPC  H14X10176   2.894   7.961   3.963 -0.8969 -0.4482 -1.7006
   76POPC  H14Y10177   2.983   7.875   3.835 -0.2570 -0.1882  0.0516
   76POPC  C31510178   3.112   7.953   3.989 -0.0458 -0.4667  0.1700
   76POPC  H15X10179   3.149   8.034   3.923  1.4923 -0.4273  1.0274
   76POPC  H15Y10180   3.192   7.877   3.983 -0.2529 -0.6414 -0.4455
   76POPC  C31610181   3.111   8.004   4.133 -0.1739  0.1073 -0.2142
   76POPC  H16X10182   3.093   7.922   4.206 -2.4774 -0.3949 -1.2765
   76POPC  H16Y10183   3.039   8.088   4.146  1.7447  2.0401 -1.4516
   76POPC  H16Z10184   3.205   8.055   4.164  1.0765 -2.2109 -0.0056
   77POPC     N10185   3.371   1.205   6.105 -0.5213  0.4808  0.5661
   77POPC   C1210186   3.417   1.064   6.140  0.1870  0.4992  0.3492
   77POPC  H12A10187   3.350   1.029   6.217 -0.5332  0.9371 -0.0668
   77POPC  H12B10188   3.517   1.062   6.183  2.1194 -1.9423 -3.6357
   77POPC   C1310189   3.245   1.205   6.027 -0.8229  0.0871 -0.7652
   77POPC  H13A10190   3.230   1.307   5.996 -2.1028 -0.9927 -4.1348
   77POPC  H13B10191   3.263   1.153   5.934  0.0233  1.9962 -1.7099
   77POPC  H13C10192   3.161   1.167   6.084  0.1233 -0.6240  0.1916
   77POPC   C1410193   3.356   1.279   6.236 -0.1759 -0.2558 -0.3820
   77POPC  H14A10194   3.442   1.283   6.301 -1.6863 -0.6405  1.7459
   77POPC  H14B10195   3.338   1.384   6.215  1.1682  0.5239  1.9726
   77POPC  H14C10196   3.275   1.230   6.287  1.5061 -1.6322  1.1059
   77POPC   C1510197   3.478   1.272   6.025  0.2485 -0.3399  0.3161
   77POPC  H15A10198   3.450   1.369   5.986 -2.3955 -0.6790  1.1490
   77POPC  H15B10199   3.506   1.207   5.944  0.6267  0.9213 -0.5931
   77POPC  H15C10200   3.567   1.288   6.085  0.5064  0.2279 -0.2024
   77POPC   C1110201   3.416   0.963   6.028 -0.3658  0.5176 -0.0415
   77POPC  H11A10202   3.316   0.945   5.984 -0.2252  0.8314 -0.5054
   77POPC  H11B10203   3.453   0.866   6.066 -1.0246  0.4701  0.4940
   77POPC     P10204   3.545   0.904   5.816 -0.1332 -0.1348 -0.0471
   77POPC   O1310205   3.587   0.770   5.867 -0.1237 -0.2370  0.0935
   77POPC   O1410206   3.636   0.966   5.722 -0.0906 -0.2814  0.0187
   77POPC   O1210207   3.513   0.997   5.935 -0.5403 -0.6860  0.5883
   77POPC   O1110208   3.406   0.880   5.734 -0.4970  0.6862 -0.1075
   77POPC    C110209   3.316   0.985   5.715  0.4992 -0.2947  0.7064
   77POPC    HA10210   3.353   1.086   5.745 -0.6439  1.5429 -3.3852
   77POPC    HB10211   3.219   0.971   5.768  0.7147 -0.4742  1.0589
   77POPC    C210212   3.293   1.003   5.561 -0.7916 -0.3485  0.5297
   77POPC    HS10213   3.227   1.091   5.543  1.4555  1.1022 -1.0149
   77POPC   O2110214   3.245   0.883   5.487 -0.3651 -0.0611  0.6868
   77POPC   C2110215   3.119   0.853   5.500  1.0629 -0.3137  0.3943
   77POPC   O2210216   3.043   0.904   5.580 -0.6327  0.1991 -0.4563
   77POPC   C2210217   3.093   0.754   5.388 -0.8229  0.0116 -0.3343
   77POPC   H2R10218   3.159   0.670   5.414 -1.1538 -0.0835  0.2058
   77POPC   H2S10219   3.128   0.797   5.291  0.0888  0.3813  0.1508
   77POPC    C310220   3.421   1.052   5.493  0.3430  0.2695  0.0997
   77POPC    HX10221   3.490   0.970   5.463 -0.1832  0.5979 -2.2014
   77POPC    HY10222   3.466   1.118   5.570 -0.6977 -0.9420  1.8151
   77POPC   O3110223   3.379   1.137   5.389 -0.0244 -0.1031 -0.3241
   77POPC   C3110224   3.375   1.081   5.270  0.3207 -0.9575  0.0639
   77POPC   O3210225   3.402   0.968   5.239  0.0590 -0.6467 -0.1634
   77POPC   C3210226   3.334   1.182   5.173 -0.2060  0.2753  0.4392
   77POPC   H2X10227   3.420   1.251   5.161 -0.5012  0.7235  0.8530
   77POPC   H2Y10228   3.251   1.250   5.200 -2.1234 -0.4047 -3.0247
   77POPC   C2310229   2.950   0.711   5.393  0.1417 -0.3893 -0.2042
   77POPC   H3R10230   2.886   0.799   5.370  1.0402  0.2387 -0.3769
   77POPC   H3S10231   2.909   0.684   5.493 -3.5575  0.1301 -1.4181
   77POPC   C2410232   2.912   0.599   5.296  0.8928 -0.8320 -0.3685
   77POPC   H4R10233   2.804   0.576   5.301  1.0603 -1.3384  1.3584
   77POPC   H4S10234   2.953   0.502   5.331  3.1929  0.9203  2.2214
   77POPC   C2510235   2.958   0.624   5.156 -0.3429  0.3427  0.3909
   77POPC   H5R10236   2.967   0.734   5.141 -0.1732  0.4556  1.2887
   77POPC   H5S10237   2.886   0.589   5.078  1.0090  1.2855 -1.3672
   77POPC   C2610238   3.079   0.534   5.116  0.4038 -0.7076 -0.0552
   77POPC   H6R10239   3.051   0.429   5.090 -1.0150 -0.0585 -1.2859
   77POPC   H6S10240   3.144   0.539   5.206 -0.8358  2.1190  0.7924
   77POPC   C2710241   3.161   0.581   4.993  0.2036  0.0286 -0.3451
   77POPC   H7R10242   3.268   0.579   5.024  0.5245  0.4687 -1.3976
   77POPC   H7S10243   3.120   0.682   4.972 -1.4724 -0.6006 -0.1995
   77POPC   C2810244   3.148   0.499   4.862 -0.4797 -0.0632  0.1187
   77POPC   H8R10245   3.046   0.495   4.820 -1.5406  0.5281  2.4603
   77POPC   H8S10246   3.168   0.392   4.886 -0.1935 -0.7840 -2.9582
   77POPC   C2910247   3.250   0.536   4.758  0.2891 -0.2796  0.1364
   77POPC   H9110248   3.355   0.521   4.786 -0.3936 -3.5090  1.4384
   77POPC  C21010249   3.226   0.616   4.653  0.3404 -0.1856  0.1423
   77POPC  H10110250   3.304   0.632   4.577 -2.0526  3.8810 -1.8240
   77POPC  C21110251   3.096   0.689   4.612 -0.1141 -0.3713  0.2732
   77POPC  H11R10252   3.136   0.780   4.562  0.7759 -1.5122 -1.1773
   77POPC  H11S10253   3.040   0.713   4.706 -0.3310  0.4606 -0.0617
   77POPC  C21210254   3.003   0.607   4.519 -0.6201  0.7260 -0.3516
   77POPC  H12R10255   2.957   0.533   4.588  0.2944  0.9459  0.5145
   77POPC  H12S10256   3.059   0.546   4.445 -0.7899 -0.0197  0.1138
   77POPC  C21310257   2.904   0.691   4.444 -0.0251 -0.0026  0.0238
   77POPC  H13R10258   2.838   0.750   4.511  1.4448  3.2098 -1.1614
   77POPC  H13S10259   2.842   0.619   4.386  0.6343 -0.6806  0.1462
   77POPC  C21410260   2.955   0.789   4.333  0.1715 -0.1807 -0.0845
   77POPC  H14R10261   3.019   0.862   4.387  0.4688  1.7261 -2.7968
   77POPC  H14S10262   2.862   0.841   4.301 -1.1203 -1.2625  1.7599
   77POPC  C21510263   3.018   0.726   4.210  0.1825  0.5918  0.3295
   77POPC  H15R10264   2.946   0.650   4.172 -1.1288  0.0689  3.5494
   77POPC  H15S10265   3.106   0.667   4.243 -0.7399 -1.6083 -0.9252
   77POPC  C21610266   3.064   0.826   4.101 -0.6395 -0.0650  0.3364
   77POPC  H16R10267   3.128   0.909   4.138 -0.0191 -0.5597  0.3864
   77POPC  H16S10268   2.978   0.874   4.050 -0.9595 -1.1374 -0.1651
   77POPC  C21710269   3.152   0.759   3.996 -0.1688 -0.1805 -0.0922
   77POPC  H17R10270   3.239   0.716   4.051  0.6065  2.7612  1.1738
   77POPC  H17S10271   3.191   0.838   3.928  0.9986 -0.7245 -0.0695
   77POPC  C21810272   3.092   0.659   3.896  0.0616  0.0941 -0.9289
   77POPC  H18R10273   3.070   0.565   3.950 -0.1077  0.5762 -0.1496
   77POPC  H18S10274   3.183   0.638   3.835 -0.2967  2.0676 -2.2196
   77POPC  H18T10275   3.003   0.685   3.836 -0.2119  0.9245 -0.1856
   77POPC   C3310276   3.321   1.127   5.022 -0.5982  0.1048 -0.6353
   77POPC   H3X10277   3.411   1.065   5.001 -0.2302  0.5477 -0.4071
   77POPC   H3Y10278   3.306   1.218   4.961  0.9361  0.8146 -0.0157
   77POPC   C3410279   3.197   1.030   5.004 -0.3471  1.5100 -0.9136
   77POPC   H4X10280   3.109   1.059   5.065 -0.2885 -2.3970  1.3729
   77POPC   H4Y10281   3.229   0.931   5.044 -0.2723 -0.1244 -4.5523
   77POPC   C3510282   3.159   1.003   4.861 -0.3160 -0.0632 -0.0032
   77POPC   H5X10283   3.099   0.909   4.861 -0.6031  0.0999  1.3684
   77POPC   H5Y10284   3.247   0.978   4.798 -0.2452  0.2359 -0.0231
   77POPC   C3610285   3.081   1.118   4.804  0.3947 -0.3864 -0.1179
   77POPC   H6X10286   3.136   1.213   4.808 -0.5818  0.4703 -3.6326
   77POPC   H6Y10287   2.979   1.131   4.846  0.1315  0.8209 -1.1038
   77POPC   C3710288   3.053   1.111   4.654  0.0584  0.6488  0.3720
   77POPC   H7X10289   3.001   1.020   4.618 -1.5429  0.9850  1.7042
   77POPC   H7Y10290   3.150   1.103   4.602 -0.9298 -1.3033 -1.2816
   77POPC   C3810291   2.979   1.231   4.595 -0.1284 -0.5019 -0.0018
   77POPC   H8X10292   3.043   1.321   4.601  0.5564 -0.6975 -2.9176
   77POPC   H8Y10293   2.895   1.248   4.665 -0.4388  0.9549 -0.6927
   77POPC   C3910294   2.940   1.221   4.448 -0.4878  0.3663  0.0145
   77POPC   H9X10295   2.869   1.306   4.437  0.2746  1.1405  1.0194
   77POPC   H9Y10296   2.885   1.126   4.427  1.5710 -1.3101  1.7233
   77POPC  C31010297   3.058   1.230   4.344  0.4561  0.0697  0.1317
   77POPC  H10X10298   3.127   1.144   4.346  0.8593  0.3040 -1.9156
   77POPC  H10Y10299   3.110   1.326   4.363  1.7415 -0.9983  2.4172
   77POPC  C31110300   2.996   1.233   4.204 -0.3332 -0.4006 -0.4198
   77POPC  H11X10301   2.920   1.314   4.208  1.8229  1.7089  0.2397
   77POPC  H11Y10302   2.949   1.133   4.200 -1.3546  0.0757 -0.7854
   77POPC  C31210303   3.079   1.261   4.081 -0.3721 -0.1613 -0.4129
   77POPC  H12X10304   3.152   1.177   4.087 -1.6217 -1.3274 -0.9556
   77POPC  H12Y10305   3.122   1.363   4.082 -2.8033  0.9313  1.3575
   77POPC  C31310306   3.012   1.247   3.947  0.3612 -0.1578 -0.4914
   77POPC  H13X10307   2.935   1.328   3.944 -0.7476 -1.1881 -0.7845
   77POPC  H13Y10308   2.970   1.145   3.954 -1.6811  0.7529  2.0420
   77POPC  C31410309   3.101   1.258   3.825  0.0178  0.3896 -0.5473
   77POPC  H14X10310   3.072   1.184   3.748 -0.1610  0.6947 -0.7701
   77POPC  H14Y10311   3.199   1.221   3.863 -0.2212 -0.5963 -0.8670
   77POPC  C31510312   3.120   1.401   3.764 -0.3696 -0.1050  0.9284
   77POPC  H15X10313   3.025   1.441   3.721  0.3256  2.5524  1.7073
   77POPC  H15Y10314   3.198   1.401   3.685  0.5641 -0.3298  1.8305
   77POPC  C31610315   3.181   1.516   3.856  0.0819 -0.2277 -0.2472
   77POPC  H16X10316   3.277   1.490   3.906 -0.1494 -0.2165  0.2086
   77POPC  H16Y10317   3.100   1.531   3.930 -0.3029  0.8588 -0.8642
   77POPC  H16Z10318   3.194   1.612   3.803  0.5719 -0.6290 -0.8614
   78POPC     N10319   1.056   3.385   6.261  0.2602 -0.3391 -0.1061
   78POPC   C1210320   1.063   3.356   6.113 -0.5121 -0.1815 -0.2934
   78POPC  H12A10321   0.983   3.405   6.059 -0.2950  0.7813  0.2231
   78POPC  H12B10322   1.048   3.251   6.097 -0.4171 -0.2854  0.2723
   78POPC   C1310323   1.156   3.293   6.335 -0.1304 -0.1015  0.5318
   78POPC  H13A10324   1.117   3.192   6.348 -4.1828  0.9145 -1.8496
   78POPC  H13B10325   1.257   3.295   6.299 -0.2236  2.7306  0.2523
   78POPC  H13C10326   1.164   3.333   6.435 -0.2306  2.2309 -0.3540
   78POPC   C1410327   1.092   3.516   6.293  0.0119 -0.1278 -0.1558
   78POPC  H14A10328   1.065   3.530   6.397  2.4663  2.3139  0.2645
   78POPC  H14B10329   1.199   3.530   6.299  0.1644 -1.3988  0.5562
   78POPC  H14C10330   1.041   3.597   6.243  0.1018  0.9644  1.4362
   78POPC   C1510331   0.913   3.364   6.314 -0.2615 -0.6249 -0.8594
   78POPC  H15A10332   0.854   3.453   6.301  0.9452  0.5575  1.3062
   78POPC  H15B10333   0.911   3.347   6.420 -3.1899  2.0918 -0.3691
   78POPC  H15C10334   0.872   3.281   6.258  0.9140 -0.7190 -1.6358
   78POPC   C1110335   1.185   3.391   6.026  0.1729 -0.5600 -0.3431
   78POPC  H11A10336   1.204   3.499   6.043  1.2708 -0.0655 -3.8045
   78POPC  H11B10337   1.142   3.367   5.926 -2.7700 -0.1498  0.7245
   78POPC     P10338   1.296   3.163   6.019 -0.0656 -0.3313 -0.0507
   78POPC   O1310339   1.158   3.110   6.008  0.1069  0.1838  0.9800
   78POPC   O1410340   1.384   3.092   6.111 -0.5300 -0.1862  0.0406
   78POPC   O1210341   1.292   3.315   6.066 -0.0882 -0.2628 -0.3130
   78POPC   O1110342   1.351   3.161   5.877 -0.6442  0.1085 -0.1346
   78POPC    C110343   1.425   3.272   5.826 -0.4661  0.0809  0.0031
   78POPC    HA10344   1.535   3.264   5.833 -0.4731  0.6654  0.8556
   78POPC    HB10345   1.398   3.373   5.863 -0.2909  0.1634 -0.0902
   78POPC    C210346   1.413   3.271   5.669 -0.0110 -0.2319  0.1667
   78POPC    HS10347   1.454   3.365   5.628  2.6353 -1.8659 -1.1830
   78POPC   O2110348   1.280   3.243   5.620  0.6507  0.1515 -0.2139
   78POPC   C2110349   1.204   3.352   5.636  0.2583  0.0252 -0.0172
   78POPC   O2210350   1.244   3.458   5.680  0.2505  0.1929 -0.6801
   78POPC   C2210351   1.066   3.331   5.582  0.1736 -0.3521 -0.8290
   78POPC   H2R10352   1.022   3.432   5.572  2.4186  0.8725  0.8578
   78POPC   H2S10353   1.001   3.283   5.659 -0.5599  1.9540  0.0779
   78POPC    C310354   1.509   3.165   5.599  0.1004 -0.3194  0.2175
   78POPC    HX10355   1.485   3.060   5.627  2.1527 -0.8083  0.3054
   78POPC    HY10356   1.610   3.180   5.643 -0.8446  0.8559  2.1035
   78POPC   O3110357   1.504   3.185   5.452  0.4496  0.6302 -0.2407
   78POPC   C3110358   1.576   3.103   5.385 -0.4063 -0.3456  0.5152
   78POPC   O3210359   1.644   3.011   5.422 -0.3101  0.6711 -0.3397
   78POPC   C3210360   1.562   3.139   5.234 -0.4179 -0.4263 -0.3330
   78POPC   H2X10361   1.568   3.250   5.227 -0.1983 -0.4946 -1.4378
   78POPC   H2Y10362   1.459   3.110   5.203 -1.0517 -1.7246  2.6159
   78POPC   C2310363   1.051   3.241   5.460 -0.3601 -0.4304  0.1085
   78POPC   H3R10364   0.945   3.244   5.426 -1.3945  0.3388  3.1354
   78POPC   H3S10365   1.080   3.135   5.479 -0.3302 -0.1329  1.7932
   78POPC   C2410366   1.141   3.278   5.337 -0.2157  0.5252  0.0361
   78POPC   H4R10367   1.247   3.282   5.370  0.0342 -1.6691 -0.3463
   78POPC   H4S10368   1.122   3.386   5.315 -1.0052  0.6515  1.2494
   78POPC   C2510369   1.113   3.186   5.218 -0.3190 -0.2508  0.0798
   78POPC   H5R10370   1.004   3.204   5.200  0.3265  0.6389 -3.8093
   78POPC   H5S10371   1.143   3.088   5.262  1.1267  0.1480  0.0297
   78POPC   C2610372   1.173   3.235   5.086 -0.1239  0.4657 -0.1681
   78POPC   H6R10373   1.284   3.233   5.084 -0.0899  0.8236  0.7781
   78POPC   H6S10374   1.159   3.345   5.077  0.6485  0.4345 -2.5732
   78POPC   C2710375   1.131   3.154   4.954  0.4939  0.1066 -0.0876
   78POPC   H7R10376   1.020   3.154   4.955  0.4402 -0.2939  3.2299
   78POPC   H7S10377   1.159   3.048   4.971 -1.2123 -0.2276  0.8168
   78POPC   C2810378   1.190   3.207   4.818  0.0558 -0.4514 -0.3325
   78POPC   H8R10379   1.133   3.160   4.735 -0.9360 -1.1604  0.7237
   78POPC   H8S10380   1.298   3.182   4.809  0.1027  0.2263 -1.9272
   78POPC   C2910381   1.172   3.355   4.806 -0.0263  0.4056 -0.5498
   78POPC   H9110382   1.256   3.418   4.839  0.5413 -0.6103 -0.0075
   78POPC  C21010383   1.059   3.409   4.756  0.2024  0.4746 -0.8603
   78POPC  H10110384   1.052   3.519   4.745  0.4822  0.6759  0.7514
   78POPC  C21110385   0.936   3.335   4.713 -0.6433  0.3134 -0.2895
   78POPC  H11R10386   0.850   3.398   4.744 -1.1548 -0.9744  1.0350
   78POPC  H11S10387   0.922   3.244   4.775 -0.1344  0.0985 -0.4879
   78POPC  C21210388   0.934   3.286   4.563 -0.1418  0.5550  0.2325
   78POPC  H12R10389   1.007   3.203   4.551 -0.9200 -0.0557 -0.3948
   78POPC  H12S10390   0.966   3.367   4.495 -1.1551  0.9096  0.1780
   78POPC  C21310391   0.794   3.257   4.511 -0.2702  0.2017 -0.1775
   78POPC  H13R10392   0.730   3.335   4.557  0.2667 -0.0263  0.9643
   78POPC  H13S10393   0.768   3.157   4.550  1.4457 -0.4862 -0.7317
   78POPC  C21410394   0.775   3.254   4.357  0.2091 -0.0241 -0.2805
   78POPC  H14R10395   0.842   3.172   4.323 -0.0030 -0.5805  0.6062
   78POPC  H14S10396   0.822   3.342   4.309  0.8494  0.4921  1.2102
   78POPC  C21510397   0.624   3.235   4.311 -0.0317 -0.3728  0.0863
   78POPC  H15R10398   0.620   3.199   4.206 -0.8399  3.2423 -1.2742
   78POPC  H15S10399   0.591   3.341   4.312 -0.5402 -0.5018 -1.1942
   78POPC  C21610400   0.541   3.135   4.393  0.0745 -0.2360  0.9736
   78POPC  H16R10401   0.548   3.177   4.495  1.8441  1.7865  0.0871
   78POPC  H16S10402   0.576   3.030   4.408 -0.1528 -0.6735 -1.1717
   78POPC  C21710403   0.390   3.128   4.351 -0.7486  0.0097 -0.2446
   78POPC  H17R10404   0.345   3.062   4.428  1.3800 -0.9027  0.3039
   78POPC  H17S10405   0.383   3.083   4.250  1.1047  1.4428 -1.0778
   78POPC  C21810406   0.322   3.266   4.340  0.3231  0.1379 -0.1537
   78POPC  H18R10407   0.342   3.320   4.436 -0.6058 -1.0010  0.7020
   78POPC  H18S10408   0.214   3.256   4.315 -0.0807 -1.1784  1.8716
   78POPC  H18T10409   0.374   3.321   4.259  0.5475  1.2990  0.7336
   78POPC   C3310410   1.658   3.070   5.136  0.2618 -0.2829  0.7350
   78POPC   H3X10411   1.646   2.960   5.144 -1.1091 -0.2352 -0.3143
   78POPC   H3Y10412   1.759   3.095   5.174 -0.7557  2.7166  1.8127
   78POPC   C3410413   1.647   3.102   4.995  0.0435 -0.1217  0.4063
   78POPC   H4X10414   1.669   3.209   4.974 -2.3787  0.1837 -0.8861
   78POPC   H4Y10415   1.544   3.098   4.953  0.5933  0.8165 -1.1487
   78POPC   C3510416   1.730   3.008   4.899  1.1052  1.1821  0.2484
   78POPC   H5X10417   1.687   2.906   4.913 -1.0025  1.8772 -0.6602
   78POPC   H5Y10418   1.833   3.001   4.939  0.0107  1.3871  3.4763
   78POPC   C3610419   1.727   3.032   4.751 -0.1680  0.8845  0.6245
   78POPC   H6X10420   1.631   3.003   4.702 -0.5310  1.4368  0.9968
   78POPC   H6Y10421   1.803   2.963   4.709  0.3237  0.6505  1.8611
   78POPC   C3710422   1.774   3.171   4.706 -0.3030  0.0764  0.4497
   78POPC   H7X10423   1.859   3.190   4.776  0.7345 -1.5176 -0.3028
   78POPC   H7Y10424   1.687   3.237   4.724  1.2931  2.4417 -0.1862
   78POPC   C3810425   1.835   3.173   4.567 -0.0286 -0.2619  0.5587
   78POPC   H8X10426   1.889   3.076   4.556  0.8908  0.3611 -0.7164
   78POPC   H8Y10427   1.908   3.255   4.548  0.5961 -0.9754 -0.1845
   78POPC   C3910428   1.719   3.173   4.468  0.4978 -0.3495  0.1321
   78POPC   H9X10429   1.657   3.260   4.497  0.6951 -0.0917 -0.2108
   78POPC   H9Y10430   1.670   3.074   4.482 -1.8732  0.8695  0.9431
   78POPC  C31010431   1.767   3.191   4.330 -0.0326  0.2303  1.0682
   78POPC  H10X10432   1.836   3.106   4.309 -0.4963 -0.0263  0.5802
   78POPC  H10Y10433   1.833   3.280   4.331  0.5832 -0.1358 -0.9457
   78POPC  C31110434   1.662   3.184   4.218 -0.1616  0.2594 -0.1383
   78POPC  H11X10435   1.624   3.289   4.222  0.4963  0.5306 -0.6730
   78POPC  H11Y10436   1.590   3.105   4.245 -0.2221  0.2831 -0.2303
   78POPC  C31210437   1.727   3.162   4.074  0.0787 -0.2701  0.7143
   78POPC  H12X10438   1.643   3.173   4.003  0.1641 -1.9553  0.3132
   78POPC  H12Y10439   1.770   3.060   4.077  1.5721  0.3308  1.3407
   78POPC  C31310440   1.841   3.257   4.044 -0.7162  0.0300  0.9173
   78POPC  H13X10441   1.923   3.255   4.119  0.5151 -0.1255 -0.3792
   78POPC  H13Y10442   1.819   3.366   4.032 -1.0219 -0.2121 -1.1346
   78POPC  C31410443   1.897   3.215   3.903  0.1566 -0.0731  0.7806
   78POPC  H14X10444   1.892   3.104   3.894 -0.4148 -0.0371  0.6147
   78POPC  H14Y10445   1.999   3.249   3.877 -0.8653  2.0330 -0.7294
   78POPC  C31510446   1.799   3.268   3.788 -0.5109  0.0583  0.6459
   78POPC  H15X10447   1.779   3.373   3.815 -0.5417  0.8126 -1.9786
   78POPC  H15Y10448   1.702   3.214   3.793 -0.8384  0.3737 -1.3641
   78POPC  C31610449   1.849   3.270   3.642  0.4209 -0.4546  0.5029
   78POPC  H16X10450   1.912   3.185   3.609  1.5676  0.9351 -1.0673
   78POPC  H16Y10451   1.916   3.359   3.637 -1.3886  0.9155 -0.8169
   78POPC  H16Z10452   1.764   3.283   3.572 -0.2133 -0.9091  1.1811
   79POPC     N10453   7.314   1.447   5.375  0.1543  0.2572  0.2063
   79POPC   C1210454   7.284   1.373   5.247 -0.4349 -0.2113  0.3477
   79POPC  H12A10455   7.209   1.421   5.186  1.4951  0.5204 -1.5711
   79POPC  H12B10456   7.257   1.271   5.271 -0.3194  0.0784  1.7628
   79POPC   C1310457   7.174   1.460   5.440 -1.0716  0.5203  0.7827
   79POPC  H13A10458   7.098   1.452   5.363  2.8291  1.6882 -3.6375
   79POPC  H13B10459   7.164   1.395   5.526  2.8968 -0.7734  0.4665
   79POPC  H13C10460   7.164   1.562   5.473 -1.3728  1.1565 -1.1358
   79POPC   C1410461   7.400   1.362   5.456  0.7423 -0.2437  0.2490
   79POPC  H14A10462   7.503   1.380   5.432  0.3764  1.2273 -0.3773
   79POPC  H14B10463   7.380   1.384   5.560 -0.4621  1.1384 -0.2311
   79POPC  H14C10464   7.374   1.259   5.437  0.3653  0.2977 -2.5708
   79POPC   C1510465   7.357   1.585   5.358 -0.4139 -0.2488  0.0546
   79POPC  H15A10466   7.287   1.641   5.298 -2.4606 -1.2719  1.3816
   79POPC  H15B10467   7.452   1.593   5.307 -2.0041 -1.4567 -3.4203
   79POPC  H15C10468   7.359   1.624   5.459 -2.2857  0.3723 -0.1058
   79POPC   C1110469   7.402   1.368   5.150 -0.0398 -0.1931  0.3587
   79POPC  H11A10470   7.419   1.472   5.116  1.7838 -0.4728  0.3139
   79POPC  H11B10471   7.369   1.295   5.072  0.4277 -1.9021  1.6854
   79POPC     P10472   7.556   1.170   5.230 -0.1054 -0.1776  0.1867
   79POPC   O1310473   7.435   1.109   5.285  0.3614  0.2709 -0.5995
   79POPC   O1410474   7.677   1.157   5.316 -0.0474 -0.0723 -0.5466
   79POPC   O1210475   7.526   1.319   5.207 -0.7776  0.1286  0.2865
   79POPC   O1110476   7.589   1.109   5.090  0.5405 -0.6735 -0.1277
   79POPC    C110477   7.662   1.197   5.003 -0.3172  0.1638 -0.5255
   79POPC    HA10478   7.734   1.258   5.062  1.3312 -2.5696  0.4830
   79POPC    HB10479   7.599   1.266   4.943  0.0910  0.7824 -0.2564
   79POPC    C210480   7.757   1.109   4.915  0.2102  0.4146 -0.1143
   79POPC    HS10481   7.832   1.057   4.977  0.7365 -0.7623 -1.6755
   79POPC   O2110482   7.810   1.197   4.818 -0.6157  0.3772  0.2945
   79POPC   C2110483   7.906   1.275   4.850 -0.7110 -0.1068 -0.7550
   79POPC   O2210484   7.957   1.284   4.965 -0.1340 -0.7219  0.8560
   79POPC   C2210485   7.937   1.358   4.731 -0.1211  0.1736  0.3011
   79POPC   H2R10486   7.958   1.460   4.769  0.9692  0.6423 -1.4285
   79POPC   H2S10487   7.850   1.359   4.661  0.5191 -0.6869 -0.5326
   79POPC    C310488   7.680   1.001   4.842 -0.4277 -0.2956  0.2647
   79POPC    HX10489   7.590   1.062   4.819 -0.5933 -0.1505  1.2530
   79POPC    HY10490   7.637   0.921   4.905 -0.4009  1.2138  2.2980
   79POPC   O3110491   7.741   0.964   4.721 -0.2660  0.2891  0.2111
   79POPC   C3110492   7.808   0.851   4.724 -0.1698 -0.2036 -0.3408
   79POPC   O3210493   7.809   0.775   4.818  0.4504  0.1424  0.9028
   79POPC   C3210494   7.895   0.830   4.598  0.1479  0.1686  0.8402
   79POPC   H2X10495   7.995   0.811   4.644  0.2217  0.4844  0.8174
   79POPC   H2Y10496   7.901   0.925   4.540  2.6380 -0.2610  0.2846
   79POPC   C2310497   8.060   1.308   4.652 -0.0648  0.6691  0.3485
   79POPC   H3R10498   8.112   1.240   4.723 -0.4868  0.1079  0.1273
   79POPC   H3S10499   8.126   1.393   4.624 -0.6027  0.5588 -1.4101
   79POPC   C2410500   8.003   1.235   4.532  0.7005  0.3765  0.3181
   79POPC   H4R10501   7.957   1.310   4.463 -2.2993 -1.4399  0.1727
   79POPC   H4S10502   7.924   1.162   4.560  0.2418  0.6858 -0.1384
   79POPC   C2510503   8.117   1.166   4.453  0.5500  0.3357  0.3279
   79POPC   H5R10504   8.166   1.080   4.504  0.1857  0.7294  1.3768
   79POPC   H5S10505   8.200   1.239   4.441 -0.6418  2.2288  2.5253
   79POPC   C2610506   8.079   1.108   4.314 -1.0725 -0.0777 -0.3826
   79POPC   H6R10507   7.982   1.056   4.330 -0.6507 -0.2704  1.7503
   79POPC   H6S10508   8.160   1.043   4.275 -0.5992  0.7604 -0.8499
   79POPC   C2710509   8.035   1.218   4.213 -0.4631 -0.4866  0.3452
   79POPC   H7R10510   7.993   1.304   4.268  1.0722 -0.3676  1.3900
   79POPC   H7S10511   7.953   1.176   4.150 -1.0106 -0.5694  1.1003
   79POPC   C2810512   8.150   1.260   4.124  0.1879 -0.0613  0.4627
   79POPC   H8R10513   8.233   1.299   4.186 -1.7579  0.5332  2.8450
   79POPC   H8S10514   8.111   1.341   4.059  0.2232 -1.7848 -1.8368
   79POPC   C2910515   8.205   1.151   4.034 -0.0167 -0.2276 -0.2234
   79POPC   H9110516   8.272   1.076   4.077  0.6586  0.3201 -0.2951
   79POPC  C21010517   8.164   1.114   3.914 -0.1068 -1.3745 -0.7629
   79POPC  H10110518   8.215   1.036   3.856  0.9577 -3.0578  2.2214
   79POPC  C21110519   8.059   1.194   3.838  0.4183  0.8870 -0.2587
   79POPC  H11R10520   7.991   1.248   3.908 -0.8331 -2.5395  1.3941
   79POPC  H11S10521   7.993   1.116   3.794  0.9341 -0.6351  1.5474
   79POPC  C21210522   8.103   1.293   3.727 -0.6893 -0.5138  0.0918
   79POPC  H12R10523   8.157   1.247   3.642  1.8246  2.7727 -0.2841
   79POPC  H12S10524   8.178   1.362   3.772 -0.4344 -0.4945 -0.3605
   79POPC  C21310525   7.983   1.375   3.674  0.6889 -0.6858  0.0748
   79POPC  H13R10526   7.925   1.423   3.755  1.6234  2.9521 -1.2353
   79POPC  H13S10527   7.900   1.311   3.636 -1.0270  0.3158  1.9426
   79POPC  C21410528   8.020   1.482   3.570 -0.4953 -0.0121 -0.2811
   79POPC  H14R10529   8.052   1.442   3.471  0.5996 -0.1517  0.1152
   79POPC  H14S10530   8.108   1.534   3.614 -0.9543 -0.3217  1.0523
   79POPC  C21510531   7.912   1.585   3.558 -0.3965 -0.1816 -0.0946
   79POPC  H15R10532   7.812   1.536   3.550 -0.6647  0.4023 -0.4481
   79POPC  H15S10533   7.920   1.635   3.459 -0.9929 -1.2329 -0.6916
   79POPC  C21610534   7.904   1.681   3.678 -0.1152  0.0286 -1.0220
   79POPC  H16R10535   7.998   1.739   3.691 -1.4571  2.4464 -1.5839
   79POPC  H16S10536   7.892   1.628   3.774  0.5686  1.6260 -0.0126
   79POPC  C21710537   7.786   1.790   3.693  0.1718  0.5196  0.1787
   79POPC  H17R10538   7.695   1.747   3.645 -0.3980  2.3375 -0.4883
   79POPC  H17S10539   7.823   1.882   3.643 -0.3963  1.3899  1.2998
   79POPC  C21810540   7.748   1.821   3.845  0.1158 -0.2179  0.2188
   79POPC  H18R10541   7.654   1.880   3.848 -1.2524 -2.1668 -1.2358
   79POPC  H18S10542   7.835   1.878   3.884  2.1636 -4.1605  2.0247
   79POPC  H18T10543   7.726   1.727   3.901 -0.0266 -0.4809 -0.2677
   79POPC   C3310544   7.855   0.710   4.497  0.9683  0.0274 -0.7429
   79POPC   H3X10545   7.817   0.620   4.549  0.2603  1.3096  1.0964
   79POPC   H3Y10546   7.945   0.676   4.442 -0.2958 -0.1142 -2.8573
   79POPC   C3410547   7.759   0.751   4.380  0.3136 -0.2970 -0.6005
   79POPC   H4X10548   7.795   0.849   4.344 -0.7691 -0.3663 -1.9492
   79POPC   H4Y10549   7.658   0.770   4.421  1.6664  0.2252  2.8163
   79POPC   C3510550   7.748   0.643   4.268 -0.6911  0.1710  0.3077
   79POPC   H5X10551   7.656   0.646   4.206  0.1324 -1.9721 -1.1646
   79POPC   H5Y10552   7.772   0.549   4.322  0.2863  1.2201  1.7815
   79POPC   C3610553   7.862   0.654   4.165 -0.2103  0.0473 -0.2454
   79POPC   H6X10554   7.869   0.556   4.114 -0.2377  0.6234 -1.3805
   79POPC   H6Y10555   7.959   0.663   4.219 -0.3908  1.9013 -0.1726
   79POPC   C3710556   7.830   0.763   4.057  0.7969  0.4457  0.2270
   79POPC   H7X10557   7.791   0.855   4.106  0.0345  0.2014  0.0818
   79POPC   H7Y10558   7.748   0.719   3.997  1.7107 -0.8677 -0.1138
   79POPC   C3810559   7.943   0.788   3.953  0.0771  0.0828  0.1555
   79POPC   H8X10560   8.035   0.817   4.007  0.6983  1.5920 -1.5823
   79POPC   H8Y10561   7.914   0.875   3.890  0.6166 -0.4514 -0.8500
   79POPC   C3910562   7.955   0.675   3.850 -0.0312  0.1732 -0.0851
   79POPC   H9X10563   7.855   0.659   3.804 -0.0641  0.2212 -0.0307
   79POPC   H9Y10564   7.975   0.585   3.913  1.2395  0.9348  0.6436
   79POPC  C31010565   8.058   0.692   3.735 -0.8383 -0.9672  1.5443
   79POPC  H10X10566   8.059   0.606   3.665 -0.9833  0.4337 -0.2373
   79POPC  H10Y10567   8.162   0.704   3.774 -0.5306 -1.7487  0.9944
   79POPC  C31110568   8.030   0.808   3.637  0.2624  1.0704  0.3206
   79POPC  H11X10569   8.019   0.908   3.684 -0.2606  1.9687 -1.5998
   79POPC  H11Y10570   7.933   0.781   3.589  1.0218  1.7594 -1.7474
   79POPC  C31210571   8.130   0.808   3.516 -0.0003 -0.3448  0.5905
   79POPC  H12X10572   8.104   0.744   3.428 -0.1345  0.4272  0.0564
   79POPC  H12Y10573   8.213   0.762   3.574 -0.0221  0.5766  1.3614
   79POPC  C31310574   8.155   0.946   3.459  0.5388  0.0798  0.2440
   79POPC  H13X10575   8.249   0.933   3.402 -0.7286 -2.1130 -1.4902
   79POPC  H13Y10576   8.186   1.023   3.533  2.7950  0.2302 -0.8059
   79POPC  C31410577   8.035   1.007   3.383 -0.6404  0.7601  0.0113
   79POPC  H14X10578   7.941   0.991   3.439 -0.1352 -1.9874  0.2159
   79POPC  H14Y10579   8.024   0.944   3.291  1.0971 -1.9029  1.4996
   79POPC  C31510580   8.049   1.147   3.343  0.4931  0.1159  0.4927
   79POPC  H15X10581   8.138   1.147   3.277  0.4468 -0.6249  0.4180
   79POPC  H15Y10582   8.083   1.216   3.423  1.7654 -1.2129  1.1291
   79POPC  C31610583   7.919   1.192   3.274  0.3528 -0.0502  0.4984
   79POPC  H16X10584   7.842   1.177   3.353  0.3502  0.0952  0.5224
   79POPC  H16Y10585   7.892   1.141   3.179  1.6522  1.4043 -0.7032
   79POPC  H16Z10586   7.935   1.299   3.248  3.4673 -0.1533  1.4672
   80POPC     N10587   1.610   6.628   5.852  0.3192  0.4080  0.3388
   80POPC   C1210588   1.683   6.604   5.719 -0.6681  0.1145 -0.4087
   80POPC  H12A10589   1.786   6.575   5.733 -0.8620 -0.5711 -0.3683
   80POPC  H12B10590   1.672   6.696   5.665 -0.3331  1.7305  2.1294
   80POPC   C1310591   1.597   6.496   5.930  0.5293 -0.4231 -0.3060
   80POPC  H13A10592   1.563   6.418   5.863 -0.2157 -2.0403  1.8376
   80POPC  H13B10593   1.688   6.467   5.979 -0.3242  1.1645  2.3784
   80POPC  H13C10594   1.524   6.505   6.009  0.4950 -2.4580 -0.0496
   80POPC   C1410595   1.686   6.725   5.935  0.5168  0.0344 -0.5526
   80POPC  H14A10596   1.642   6.732   6.034  0.4322 -1.2500 -0.4866
   80POPC  H14B10597   1.791   6.701   5.943  0.3359 -0.2661  2.1540
   80POPC  H14C10598   1.690   6.824   5.892  1.3104  1.5881  2.7060
   80POPC   C1510599   1.474   6.691   5.831 -0.6904  0.6669  0.4064
   80POPC  H15A10600   1.486   6.768   5.756  0.7265 -1.8790 -2.1608
   80POPC  H15B10601   1.435   6.748   5.915 -3.0894  0.9519 -0.8179
   80POPC  H15C10602   1.409   6.612   5.796  1.9806 -0.7085 -1.7263
   80POPC   C1110603   1.630   6.482   5.631  0.3647 -0.1804  0.4473
   80POPC  H11A10604   1.673   6.504   5.531 -1.3336  0.9492 -0.0810
   80POPC  H11B10605   1.522   6.486   5.606  0.5742 -0.9566 -0.6338
   80POPC     P10606   1.809   6.306   5.692 -0.0241 -0.2395 -0.2123
   80POPC   O1310607   1.803   6.213   5.810  0.0942 -0.0451 -0.3101
   80POPC   O1410608   1.903   6.423   5.703  0.3304 -0.0898 -0.1051
   80POPC   O1210609   1.657   6.353   5.678  0.1927  0.1788 -0.2353
   80POPC   O1110610   1.834   6.223   5.560 -0.2066 -0.2128 -0.2216
   80POPC    C110611   1.746   6.199   5.459  1.0280 -0.2877 -0.0328
   80POPC    HA10612   1.641   6.212   5.493  0.7632 -0.3820 -0.8009
   80POPC    HB10613   1.758   6.093   5.429  1.8377  0.0010 -0.7725
   80POPC    C210614   1.784   6.285   5.335 -0.1064  0.6542 -0.1447
   80POPC    HS10615   1.775   6.392   5.365 -0.2806  0.9399 -1.1988
   80POPC   O2110616   1.715   6.245   5.219  0.4505 -0.6640  0.4152
   80POPC   C2110617   1.585   6.291   5.225 -0.2628  0.2886 -0.2679
   80POPC   O2210618   1.534   6.364   5.306  0.0492 -0.6595  0.1973
   80POPC   C2210619   1.506   6.247   5.094 -0.4721 -0.2268 -0.3551
   80POPC   H2R10620   1.436   6.173   5.137 -1.4085  0.3792 -0.8097
   80POPC   H2S10621   1.569   6.193   5.020 -0.9789 -2.3999  0.7373
   80POPC    C310622   1.939   6.275   5.314 -0.9738 -0.0688 -0.3552
   80POPC    HX10623   1.956   6.166   5.304 -1.3723  0.0336 -2.6378
   80POPC    HY10624   1.990   6.301   5.409 -1.5210  1.2015 -0.3878
   80POPC   O3110625   1.991   6.343   5.198  0.3171  0.1650 -1.0644
   80POPC   C3110626   1.992   6.474   5.213 -0.0956  0.1557 -0.4331
   80POPC   O3210627   1.960   6.534   5.315  0.3229  0.5122  0.5116
   80POPC   C3210628   2.057   6.528   5.082 -0.0834 -0.7231  0.2330
   80POPC   H2X10629   2.070   6.449   5.005  1.2964 -1.1209  0.8624
   80POPC   H2Y10630   2.161   6.556   5.107 -0.5970 -0.7056  2.6096
   80POPC   C2310631   1.423   6.371   5.040  0.0594 -0.2013  0.1808
   80POPC   H3R10632   1.419   6.458   5.109  1.1531 -0.6445  0.8219
   80POPC   H3S10633   1.320   6.336   5.018  0.5223 -1.1645 -0.5203
   80POPC   C2410634   1.480   6.417   4.904  0.2424 -0.4353  0.9561
   80POPC   H4R10635   1.591   6.425   4.916  0.1248  0.8236  1.3888
   80POPC   H4S10636   1.436   6.517   4.888  0.3613 -0.4322  0.6375
   80POPC   C2510637   1.463   6.317   4.789 -0.1553  0.2572 -0.3557
   80POPC   H5R10638   1.512   6.220   4.810 -0.5409 -0.5271 -2.7708
   80POPC   H5S10639   1.517   6.361   4.702  0.3625  0.6236  0.1405
   80POPC   C2610640   1.316   6.274   4.755 -0.3817  0.1615 -0.2433
   80POPC   H6R10641   1.244   6.358   4.770 -0.1839  0.0993  1.1718
   80POPC   H6S10642   1.269   6.198   4.822 -0.9302  1.8192  1.3337
   80POPC   C2710643   1.308   6.229   4.608  0.1691  0.2262  0.3488
   80POPC   H7R10644   1.380   6.145   4.603  0.6909  0.5146  2.0787
   80POPC   H7S10645   1.332   6.323   4.553 -4.3165  1.2590 -0.2289
   80POPC   C2810646   1.178   6.174   4.560  0.6705 -0.0768 -0.2482
   80POPC   H8R10647   1.095   6.230   4.609  1.6919 -0.5255  2.1128
   80POPC   H8S10648   1.168   6.069   4.593 -1.8492 -0.3146 -1.4903
   80POPC   C2910649   1.177   6.182   4.408  0.1640 -0.0804 -0.1004
   80POPC   H9110650   1.164   6.281   4.361 -1.4443 -0.1747  0.0671
   80POPC  C21010651   1.200   6.086   4.317  0.1776  0.0342 -1.0582
   80POPC  H10110652   1.202   6.125   4.214  0.2244  0.7050 -0.8055
   80POPC  C21110653   1.229   5.939   4.348 -0.7669 -0.2296 -0.1157
   80POPC  H11R10654   1.159   5.869   4.297 -1.0455 -0.5926  0.7483
   80POPC  H11S10655   1.213   5.924   4.457 -4.9608  0.8828 -0.3947
   80POPC  C21210656   1.374   5.915   4.302  0.0505  0.1073 -0.4197
   80POPC  H12R10657   1.408   5.824   4.355 -0.3611  0.9718  1.4364
   80POPC  H12S10658   1.441   5.999   4.330  0.3985 -0.2978 -0.0368
   80POPC  C21310659   1.402   5.882   4.154 -0.1026  0.5787  0.0760
   80POPC  H13R10660   1.512   5.879   4.136  0.2604  1.0397  2.0312
   80POPC  H13S10661   1.366   5.972   4.099 -1.5191  0.4254  0.7326
   80POPC  C21410662   1.344   5.752   4.115 -0.3139 -0.3757 -0.8582
   80POPC  H14R10663   1.238   5.756   4.148 -0.6285 -0.9236 -1.7603
   80POPC  H14S10664   1.388   5.664   4.166 -0.0215 -0.3049 -0.9898
   80POPC  C21510665   1.334   5.723   3.962  0.0917  0.1179 -0.3767
   80POPC  H15R10666   1.425   5.750   3.904  0.5285  3.4608  1.5678
   80POPC  H15S10667   1.265   5.798   3.918 -0.6278  0.8970  1.9132
   80POPC  C21610668   1.303   5.570   3.933 -0.3376  0.7173 -0.5346
   80POPC  H16R10669   1.382   5.508   3.980 -0.0413 -0.1588 -2.1174
   80POPC  H16S10670   1.322   5.555   3.825  0.2628 -2.3412 -0.0978
   80POPC  C21710671   1.158   5.534   3.961 -0.4291 -0.3113  0.5724
   80POPC  H17R10672   1.097   5.570   3.875  0.2076  1.1775  0.7299
   80POPC  H17S10673   1.127   5.592   4.050 -0.7620 -0.9216  0.8666
   80POPC  C21810674   1.135   5.389   3.975  0.1894  0.4949 -0.0617
   80POPC  H18R10675   1.191   5.331   4.052 -0.1626  0.1749 -0.0402
   80POPC  H18S10676   1.139   5.342   3.874 -1.9465 -0.6895  0.3327
   80POPC  H18T10677   1.026   5.389   4.000  0.0937 -3.1496  0.0867
   80POPC   C3310678   1.974   6.639   5.025 -0.0894 -0.6143  0.1317
   80POPC   H3X10679   2.030   6.690   4.944 -2.0247  0.6716 -0.4845
   80POPC   H3Y10680   1.957   6.716   5.104 -0.4790 -0.8664  0.2998
   80POPC   C3410681   1.830   6.598   4.975  0.2319  0.1140  0.2269
   80POPC   H4X10682   1.753   6.674   5.000 -0.2113 -0.1416 -0.3351
   80POPC   H4Y10683   1.797   6.508   5.032  1.3679 -1.2481 -1.1637
   80POPC   C3510684   1.827   6.569   4.822  0.3813 -0.2110  0.0484
   80POPC   H5X10685   1.729   6.518   4.807 -0.6015  1.2694  1.1838
   80POPC   H5Y10686   1.919   6.515   4.789 -0.2782 -0.5401 -1.3272
   80POPC   C3610687   1.821   6.711   4.744 -0.2349  0.5310 -0.7690
   80POPC   H6X10688   1.916   6.763   4.768 -0.2687  0.1446  0.2769
   80POPC   H6Y10689   1.727   6.749   4.788 -0.0626  0.1026  0.0052
   80POPC   C3710690   1.810   6.681   4.593  0.0355  0.1791 -0.1748
   80POPC   H7X10691   1.911   6.648   4.560 -0.0304 -0.7987  0.5422
   80POPC   H7Y10692   1.786   6.781   4.552  1.8707  1.3344  1.3948
   80POPC   C3810693   1.694   6.590   4.549 -0.4664  0.1735 -0.0130
   80POPC   H8X10694   1.708   6.488   4.590 -0.6254  0.5999  1.1262
   80POPC   H8Y10695   1.705   6.587   4.438  0.8744  0.3910  0.0902
   80POPC   C3910696   1.570   6.663   4.595  0.2765  0.3361  0.2252
   80POPC   H9X10697   1.581   6.774   4.597 -2.4662  0.6656  1.6250
   80POPC   H9Y10698   1.548   6.631   4.699 -0.4773  0.1256  0.0124
   80POPC  C31010699   1.451   6.630   4.510  0.3022 -0.4177  0.4046
   80POPC  H10X10700   1.362   6.686   4.544  0.0521  0.9413 -2.2124
   80POPC  H10Y10701   1.418   6.524   4.515 -3.3898  0.5528 -0.2729
   80POPC  C31110702   1.452   6.640   4.359  0.1808 -0.7704  0.2282
   80POPC  H11X10703   1.537   6.577   4.325 -0.9298 -2.1306 -0.1441
   80POPC  H11Y10704   1.474   6.746   4.338  1.1530 -1.2505 -1.2815
   80POPC  C31210705   1.318   6.603   4.296 -0.1334  1.0082 -0.1883
   80POPC  H12X10706   1.246   6.687   4.307 -0.3908  0.5407  2.4170
   80POPC  H12Y10707   1.284   6.509   4.344  3.1355 -1.0617 -1.5982
   80POPC  C31310708   1.330   6.574   4.148  0.1271 -0.2535 -0.3850
   80POPC  H13X10709   1.404   6.635   4.092 -1.0849 -0.2043 -2.0116
   80POPC  H13Y10710   1.227   6.578   4.105  0.0001 -0.2752 -0.0857
   80POPC  C31410711   1.379   6.428   4.120  0.2911 -0.1333  0.1828
   80POPC  H14X10712   1.326   6.358   4.188  0.9735 -0.5526  0.2918
   80POPC  H14Y10713   1.486   6.420   4.150  0.1536 -2.4873  0.2009
   80POPC  C31510714   1.363   6.398   3.968 -0.5336  0.2075  0.0898
   80POPC  H15X10715   1.423   6.471   3.909 -2.3543  0.9406 -0.9444
   80POPC  H15Y10716   1.254   6.407   3.950 -0.6282 -0.6849  0.1763
   80POPC  C31610717   1.408   6.257   3.933  0.0782 -0.5647  0.4155
   80POPC  H16X10718   1.386   6.229   3.828  0.2449  0.0838  0.2018
   80POPC  H16Y10719   1.362   6.180   3.998 -0.6270 -2.5536 -2.2573
   80POPC  H16Z10720   1.518   6.240   3.944  0.0323 -0.6959  0.6886
   81POPC     N10721   6.467   1.626   5.725 -0.4981 -0.1919  0.1267
   81POPC   C1210722   6.599   1.567   5.666 -0.7954  0.1734 -0.0167
   81POPC  H12A10723   6.629   1.471   5.705  0.3816  0.1372 -0.9516
   81POPC  H12B10724   6.680   1.631   5.701 -0.4591  0.1939 -0.8083
   81POPC   C1310725   6.442   1.750   5.653 -0.7586 -0.0851  0.7513
   81POPC  H13A10726   6.426   1.736   5.548 -0.5864  0.5345  0.6349
   81POPC  H13B10727   6.356   1.805   5.689  0.7328  2.3890  0.7677
   81POPC  H13C10728   6.529   1.814   5.655 -0.0777 -0.7806 -2.3612
   81POPC   C1410729   6.352   1.528   5.717 -0.2688 -0.4600  0.5673
   81POPC  H14A10730   6.385   1.432   5.753  2.1650  0.3795  0.7350
   81POPC  H14B10731   6.261   1.562   5.765 -1.0364 -1.3224 -0.2295
   81POPC  H14C10732   6.324   1.515   5.613 -0.3489 -0.1259  0.5457
   81POPC   C1510733   6.487   1.650   5.865  0.1048 -0.1351 -0.3877
   81POPC  H15A10734   6.513   1.558   5.915 -0.0384  0.5403  0.9839
   81POPC  H15B10735   6.394   1.666   5.916  0.8381 -1.6540  1.5661
   81POPC  H15C10736   6.568   1.718   5.888 -0.8822  0.1239  2.9251
   81POPC   C1110737   6.610   1.543   5.509 -0.5070  0.2031 -0.2807
   81POPC  H11A10738   6.715   1.524   5.476  0.4607  0.1817  2.4736
   81POPC  H11B10739   6.584   1.640   5.462  0.4534 -0.1144 -1.5221
   81POPC     P10740   6.537   1.297   5.483 -0.1972 -0.1968  0.2133
   81POPC   O1310741   6.409   1.235   5.513  0.4920 -0.2664  0.5535
   81POPC   O1410742   6.642   1.267   5.582  0.4021  0.4303  0.3377
   81POPC   O1210743   6.518   1.452   5.466  0.3813  1.0190 -0.5716
   81POPC   O1110744   6.575   1.254   5.338  0.1824  0.3418  0.3070
   81POPC    C110745   6.525   1.277   5.213  0.3582 -0.2478 -0.3649
   81POPC    HA10746   6.438   1.346   5.204  0.2814 -0.5768 -2.7592
   81POPC    HB10747   6.499   1.177   5.172  0.9850  0.8912 -3.8997
   81POPC    C210748   6.632   1.331   5.112 -0.6019 -0.2486  0.4013
   81POPC    HS10749   6.588   1.393   5.031 -3.1064 -1.5445  0.6992
   81POPC   O2110750   6.711   1.224   5.056  0.7553  0.3143  0.2737
   81POPC   C2110751   6.647   1.151   4.961  0.5800  0.4418 -0.1643
   81POPC   O2210752   6.535   1.180   4.917 -0.0617  0.3856  0.3432
   81POPC   C2210753   6.733   1.029   4.921  0.2984 -0.3122 -0.0502
   81POPC   H2R10754   6.650   0.968   4.879 -0.6131 -0.6272  2.0536
   81POPC   H2S10755   6.793   0.995   5.008  4.2326  3.1224 -1.0944
   81POPC    C310756   6.737   1.431   5.172  0.0984  0.3656 -0.2592
   81POPC    HX10757   6.804   1.373   5.240 -0.1001 -0.3968 -0.6974
   81POPC    HY10758   6.690   1.500   5.245  0.3304 -2.3399  2.7006
   81POPC   O3110759   6.793   1.514   5.072  0.3499 -0.4844  0.2868
   81POPC   C3110760   6.919   1.479   5.028  0.3631  0.2108  0.1960
   81POPC   O3210761   6.991   1.399   5.084 -0.7566  0.2261  0.5191
   81POPC   C3210762   6.962   1.570   4.904  0.1171 -0.0891 -0.1202
   81POPC   H2X10763   7.019   1.655   4.948 -0.2136 -1.0150  2.2535
   81POPC   H2Y10764   6.872   1.623   4.867 -0.3284 -0.9085 -0.2410
   81POPC   C2310765   6.841   1.070   4.817 -0.0053 -0.1240  0.2927
   81POPC   H3R10766   6.930   1.006   4.836 -0.0407 -0.0664  0.6504
   81POPC   H3S10767   6.876   1.171   4.850 -3.1037  1.2135 -0.1743
   81POPC   C2410768   6.809   1.080   4.671  0.6266  0.6186 -0.8723
   81POPC   H4R10769   6.892   1.131   4.618  0.2507  0.5068 -1.5825
   81POPC   H4S10770   6.717   1.142   4.659  0.7565  0.7196 -1.3586
   81POPC   C2510771   6.790   0.935   4.621  0.1030 -0.7035 -0.5844
   81POPC   H5R10772   6.701   0.893   4.672 -0.5404  2.4269  1.1591
   81POPC   H5S10773   6.880   0.875   4.644 -0.1591 -0.6870  0.5092
   81POPC   C2610774   6.778   0.921   4.469  0.2937  0.5922  0.8801
   81POPC   H6R10775   6.871   0.951   4.415 -0.7641  1.9930 -0.2585
   81POPC   H6S10776   6.699   0.995   4.442 -0.9755 -0.6855  0.9759
   81POPC   C2710777   6.725   0.790   4.416 -0.1318 -0.4448  0.1616
   81POPC   H7R10778   6.686   0.807   4.313 -2.1990 -3.2509  0.3781
   81POPC   H7S10779   6.638   0.757   4.477 -1.6946  1.7243 -0.7558
   81POPC   C2810780   6.825   0.682   4.434 -0.2679 -0.0536 -0.5883
   81POPC   H8R10781   6.892   0.714   4.516  0.2343  0.0252 -1.0249
   81POPC   H8S10782   6.890   0.683   4.344 -0.0457 -0.0152 -0.4280
   81POPC   C2910783   6.776   0.545   4.456  0.2187  0.6020 -0.0755
   81POPC   H9110784   6.709   0.538   4.542  0.1629  2.5598  0.0815
   81POPC  C21010785   6.805   0.434   4.389  0.7335  0.4395  0.8252
   81POPC  H10110786   6.774   0.337   4.430 -1.0247  0.5419 -0.1688
   81POPC  C21110787   6.882   0.418   4.257  0.0783 -0.2771  0.2495
   81POPC  H11R10788   6.918   0.518   4.222 -0.8187  0.0655  0.2963
   81POPC  H11S10789   6.811   0.389   4.178  2.4767 -1.3683 -1.6229
   81POPC  C21210790   7.009   0.326   4.270  0.7025  0.2119 -0.5216
   81POPC  H12R10791   6.987   0.231   4.323  0.2453  0.5138 -0.1625
   81POPC  H12S10792   7.080   0.386   4.331  2.1887 -0.2533 -1.7162
   81POPC  C21310793   7.068   0.281   4.133 -0.3726  0.6042 -0.0223
   81POPC  H13R10794   7.157   0.218   4.154 -0.5340  0.5299  0.4241
   81POPC  H13S10795   7.100   0.371   4.074  1.9230  0.7787  1.3432
   81POPC  C21410796   6.980   0.194   4.044  0.1931 -0.2868  0.4365
   81POPC  H14R10797   6.895   0.259   4.019  1.0974  0.4170 -0.9091
   81POPC  H14S10798   6.953   0.105   4.105  0.4179  0.1897  1.2474
   81POPC  C21510799   7.050   0.153   3.911  0.6239  0.6321  0.6016
   81POPC  H15R10800   7.160   0.152   3.901  0.4349 -0.4602 -2.1888
   81POPC  H15S10801   7.017   0.233   3.842 -0.9575 -1.4998 -1.2924
   81POPC  C21610802   6.985   0.025   3.856 -0.5638  0.1403 -0.7115
   81POPC  H16R10803   6.929   0.050   3.763  0.0343  1.6047 -0.7070
   81POPC  H16S10804   6.908  -0.003   3.930  0.1760  0.3310  0.1473
   81POPC  C21710805   7.073  -0.101   3.824  0.6407  0.0462 -0.4032
   81POPC  H17R10806   7.132  -0.078   3.732  1.6811  0.7367  0.4218
   81POPC  H17S10807   7.004  -0.183   3.795  2.5191 -1.3982 -0.9670
   81POPC  C21810808   7.170  -0.155   3.924 -0.2460  0.1088 -0.0511
   81POPC  H18R10809   7.259  -0.090   3.940 -0.2536  0.1279 -0.0861
   81POPC  H18S10810   7.196  -0.261   3.902 -1.2475 -0.5565  1.8352
   81POPC  H18T10811   7.125  -0.163   4.025 -3.2317  1.2177 -1.1743
   81POPC   C3310812   7.039   1.492   4.804 -0.3430 -0.4386  0.6615
   81POPC   H3X10813   7.012   1.525   4.701  1.4740 -2.7226 -0.6639
   81POPC   H3Y10814   7.015   1.383   4.806  1.6729 -0.9204  1.1224
   81POPC   C3410815   7.193   1.501   4.834  0.6511  0.1781 -0.3800
   81POPC   H4X10816   7.216   1.453   4.931  0.1444  0.1926 -0.2485
   81POPC   H4Y10817   7.216   1.609   4.842 -1.1875  0.4845  1.7854
   81POPC   C3510818   7.284   1.431   4.728  0.1665 -0.3646  0.1152
   81POPC   H5X10819   7.281   1.494   4.637 -2.5552 -0.1176  0.3226
   81POPC   H5Y10820   7.246   1.331   4.698 -0.7161  0.0237 -0.0755
   81POPC   C3610821   7.433   1.401   4.777 -0.5613 -0.1816  0.2697
   81POPC   H6X10822   7.418   1.297   4.813 -0.5804 -0.9419 -1.7605
   81POPC   H6Y10823   7.467   1.452   4.869  0.0732 -0.5825  0.2622
   81POPC   C3710824   7.550   1.405   4.672 -0.8732  0.5652  0.9890
   81POPC   H7X10825   7.647   1.382   4.721 -0.6320  0.0681  0.2852
   81POPC   H7Y10826   7.562   1.507   4.630  0.8463  0.2598  0.6782
   81POPC   C3810827   7.521   1.286   4.575 -0.0629  0.4592  0.8570
   81POPC   H8X10828   7.417   1.278   4.538  0.6547 -1.7392 -0.9031
   81POPC   H8Y10829   7.539   1.187   4.622  2.4098  0.1838 -0.4924
   81POPC   C3910830   7.620   1.295   4.456  0.6818  0.1808  0.3350
   81POPC   H9X10831   7.719   1.254   4.483  0.7139 -0.0501 -0.1216
   81POPC   H9Y10832   7.644   1.403   4.449  0.7415  0.4640  3.4727
   81POPC  C31010833   7.570   1.228   4.323  0.3283  0.9888  0.1133
   81POPC  H10X10834   7.647   1.242   4.245 -0.8185 -1.0583 -1.4847
   81POPC  H10Y10835   7.480   1.279   4.281  0.3035  1.5877  0.8769
   81POPC  C31110836   7.544   1.076   4.348  0.5937  0.1503 -0.0876
   81POPC  H11X10837   7.471   1.051   4.428 -0.2803 -1.4624 -1.3182
   81POPC  H11Y10838   7.637   1.036   4.393 -0.2731 -2.2641 -0.2863
   81POPC  C31210839   7.501   0.997   4.219 -0.8398 -0.2884 -0.3993
   81POPC  H12X10840   7.497   0.893   4.258  2.8514 -0.0454  1.0279
   81POPC  H12Y10841   7.580   1.003   4.142  0.2848  0.3945  0.7767
   81POPC  C31310842   7.355   1.032   4.183  0.1315  0.1418 -0.2520
   81POPC  H13X10843   7.352   1.130   4.131 -1.5068 -0.0998 -0.6578
   81POPC  H13Y10844   7.296   1.032   4.278  3.2906 -1.0637  1.9053
   81POPC  C31410845   7.287   0.924   4.089 -0.4752  0.2632 -0.6718
   81POPC  H14X10846   7.293   0.825   4.140  0.2787  1.5225  1.8554
   81POPC  H14Y10847   7.341   0.912   3.993 -1.2681 -2.2037 -0.8731
   81POPC  C31510848   7.141   0.957   4.056  0.2902 -0.7827  0.3345
   81POPC  H15X10849   7.111   0.903   3.963 -1.5409  0.9726 -0.1753
   81POPC  H15Y10850   7.134   1.064   4.026 -2.2842 -1.5209 -2.1946
   81POPC  C31610851   7.040   0.906   4.161  0.0171 -0.2104  0.2119
   81POPC  H16X10852   7.062   0.948   4.261  1.5687 -2.1226  0.7327
   81POPC  H16Y10853   7.038   0.796   4.169  0.6123 -0.2948 -0.6978
   81POPC  H16Z10854   6.935   0.923   4.125 -0.8218 -1.8839  1.7427
   82POPC     N10855   1.036   1.428   5.879 -0.0928  0.3692 -0.3133
   82POPC   C1210856   1.135   1.398   5.758 -0.4103 -0.5207  0.6761
   82POPC  H12A10857   1.216   1.469   5.763  0.2904 -1.4081  2.6730
   82POPC  H12B10858   1.074   1.425   5.673  0.6845  0.5392  0.1952
   82POPC   C1310859   0.982   1.567   5.855  0.6754 -0.1290 -0.7245
   82POPC  H13A10860   0.938   1.614   5.942  1.5567  1.1418 -0.9309
   82POPC  H13B10861   1.063   1.634   5.830 -0.0570  0.5323 -1.3920
   82POPC  H13C10862   0.911   1.560   5.774 -0.9450 -1.7213  0.7353
   82POPC   C1410863   0.922   1.331   5.899 -0.6090 -0.3453  0.4457
   82POPC  H14A10864   0.960   1.229   5.903 -1.6597 -0.7140  1.9188
   82POPC  H14B10865   0.859   1.358   5.983  0.7959  0.3952  1.3011
   82POPC  H14C10866   0.852   1.335   5.817 -1.0500  0.5079  0.8554
   82POPC   C1510867   1.105   1.433   6.011  0.2512  0.8557 -0.4743
   82POPC  H15A10868   1.116   1.330   6.042  0.7336  1.0378 -0.0285
   82POPC  H15B10869   1.045   1.466   6.095  0.2089 -1.7276  0.6143
   82POPC  H15C10870   1.202   1.481   6.008  0.2556  0.8070 -2.3142
   82POPC   C1110871   1.201   1.258   5.753 -0.1720  0.5184  0.0614
   82POPC  H11A10872   1.242   1.241   5.651  1.4581  1.0826  0.5808
   82POPC  H11B10873   1.126   1.179   5.775 -1.6052  1.4489 -1.2703
   82POPC     P10874   1.446   1.329   5.827 -0.1789  0.1198  0.0499
   82POPC   O1310875   1.570   1.254   5.865  1.1192  0.2881 -0.0569
   82POPC   O1410876   1.428   1.459   5.896  0.7993 -0.1825  0.0294
   82POPC   O1210877   1.311   1.251   5.845  0.2819  0.3127 -0.1523
   82POPC   O1110878   1.458   1.344   5.669 -0.1295 -0.5490  0.4712
   82POPC    C110879   1.554   1.440   5.630 -0.2003 -0.2992  0.2029
   82POPC    HA10880   1.632   1.390   5.568 -2.7637 -1.3985 -2.3811
   82POPC    HB10881   1.605   1.498   5.710  1.9066 -0.7421 -0.7393
   82POPC    C210882   1.491   1.543   5.531 -0.1217 -0.6180  0.5000
   82POPC    HS10883   1.409   1.588   5.591  1.1143  0.2324  1.5941
   82POPC   O2110884   1.446   1.469   5.412  0.9945  0.4736  0.1619
   82POPC   C2110885   1.319   1.459   5.404  0.3290 -0.0739 -0.2009
   82POPC   O2210886   1.230   1.510   5.467  0.3972 -0.2943 -0.4362
   82POPC   C2210887   1.288   1.369   5.289 -0.1946  0.1290  0.0338
   82POPC   H2R10888   1.334   1.269   5.304 -1.8603 -0.5844  0.6050
   82POPC   H2S10889   1.338   1.417   5.202 -0.2965  0.8146  0.3475
   82POPC    C310890   1.584   1.655   5.484 -0.4922 -0.1772  0.2683
   82POPC    HX10891   1.673   1.594   5.460 -1.5794 -1.9989  0.7342
   82POPC    HY10892   1.604   1.707   5.581 -0.1112  0.2294 -0.0198
   82POPC   O3110893   1.549   1.735   5.368  0.0196 -0.1784 -0.1261
   82POPC   C3110894   1.435   1.803   5.385  0.8656 -0.2976  0.2881
   82POPC   O3210895   1.388   1.835   5.490 -0.5691  0.4894  0.0912
   82POPC   C3210896   1.380   1.852   5.248 -0.3326  0.0314 -0.6372
   82POPC   H2X10897   1.420   1.782   5.171  1.1532  1.4677 -1.2385
   82POPC   H2Y10898   1.427   1.951   5.233  0.6730 -0.2611  0.3938
   82POPC   C2310899   1.144   1.330   5.283  0.4836  0.2721  0.7793
   82POPC   H3R10900   1.075   1.417   5.282 -1.8327 -1.4413 -0.4658
   82POPC   H3S10901   1.126   1.272   5.376  1.4152 -2.2965 -0.5446
   82POPC   C2410902   1.118   1.229   5.166 -0.5165 -0.1152  0.1965
   82POPC   H4R10903   1.211   1.167   5.160 -0.7718 -0.5859  0.9066
   82POPC   H4S10904   1.107   1.282   5.069  0.0359 -0.7362 -0.2168
   82POPC   C2510905   0.998   1.130   5.170 -0.4909  0.0780  0.0706
   82POPC   H5R10906   1.031   1.052   5.242 -2.1387  0.7296  1.5890
   82POPC   H5S10907   0.969   1.086   5.072  0.9592  0.3966 -0.5310
   82POPC   C2610908   0.874   1.202   5.231  0.3344 -0.3889 -0.2687
   82POPC   H6R10909   0.835   1.273   5.155  0.9772 -1.1442 -1.3375
   82POPC   H6S10910   0.902   1.270   5.314 -0.2561 -0.2118 -0.2064
   82POPC   C2710911   0.764   1.110   5.274  0.3022  0.8421  0.1626
   82POPC   H7R10912   0.684   1.171   5.321 -1.4486 -1.0190 -0.2555
   82POPC   H7S10913   0.809   1.039   5.347 -1.9516 -0.2742  0.5500
   82POPC   C2810914   0.692   1.028   5.170  0.0113  0.2821  0.2523
   82POPC   H8R10915   0.627   0.971   5.240  0.7561 -1.5339 -0.4853
   82POPC   H8S10916   0.764   0.953   5.130  2.1149  0.6604  3.0238
   82POPC   C2910917   0.608   1.102   5.069  0.4638  0.4351  0.5467
   82POPC   H9110918   0.538   1.173   5.117  0.5634  0.9865 -0.1058
   82POPC  C21010919   0.623   1.113   4.934  0.3325  0.1017  0.1782
   82POPC  H10110920   0.551   1.183   4.888  1.0417  1.9063  1.6877
   82POPC  C21110921   0.731   1.054   4.846  0.4779  0.3872  0.1521
   82POPC  H11R10922   0.688   1.000   4.760  1.2266 -0.7895  0.4879
   82POPC  H11S10923   0.805   0.989   4.898  0.9920  3.0312  3.0961
   82POPC  C21210924   0.822   1.173   4.793  0.1861  0.0592  0.0923
   82POPC  H12R10925   0.865   1.233   4.876 -1.6982  2.9506 -0.8658
   82POPC  H12S10926   0.759   1.247   4.739  0.0898  0.9801  1.4206
   82POPC  C21310927   0.937   1.123   4.701  0.5305  0.1139  0.3218
   82POPC  H13R10928   0.994   1.039   4.745  0.2505 -1.6209 -2.4507
   82POPC  H13S10929   0.989   1.221   4.696 -0.5760  0.7668  1.1343
   82POPC  C21410930   0.906   1.058   4.565  0.0086 -0.4341 -0.3985
   82POPC  H14R10931   0.833   1.121   4.510  0.1237 -1.0744 -1.3087
   82POPC  H14S10932   0.853   0.962   4.581  1.9191 -1.6213 -0.9755
   82POPC  C21510933   1.032   1.032   4.487 -0.5558 -0.0233 -0.0119
   82POPC  H15R10934   1.103   0.979   4.554 -2.0867 -2.7152 -0.4100
   82POPC  H15S10935   1.077   1.132   4.467 -1.9418  0.6858  0.3092
   82POPC  C21610936   1.008   0.960   4.350  0.3562  1.0330 -0.3606
   82POPC  H16R10937   0.975   1.037   4.277 -1.5836  0.5574 -0.0537
   82POPC  H16S10938   0.926   0.890   4.379  0.9162  0.3077 -0.4709
   82POPC  C21710939   1.143   0.897   4.309  0.2956  0.2889  0.3133
   82POPC  H17R10940   1.209   0.980   4.276 -0.7624  0.8722 -0.3497
   82POPC  H17S10941   1.127   0.834   4.219  0.8321 -0.4393  0.7099
   82POPC  C21810942   1.219   0.808   4.411  0.0122  0.3810 -0.0705
   82POPC  H18R10943   1.301   0.754   4.359  1.6850 -0.0143  2.7767
   82POPC  H18S10944   1.154   0.732   4.458 -0.1379  0.2621 -0.4662
   82POPC  H18T10945   1.262   0.873   4.491  1.0529  0.8545 -0.9818
   82POPC   C3310946   1.229   1.867   5.250 -0.5030 -0.1990  0.5716
   82POPC   H3X10947   1.204   1.947   5.323  1.9157 -0.0698  1.3551
   82POPC   H3Y10948   1.172   1.774   5.273 -1.2739  0.2667  0.5772
   82POPC   C3410949   1.182   1.927   5.113  0.1363  0.7097 -0.0165
   82POPC   H4X10950   1.072   1.918   5.129  0.1629 -2.3141 -0.7997
   82POPC   H4Y10951   1.193   1.862   5.024  0.8806  0.9759 -0.1246
   82POPC   C3510952   1.240   2.054   5.071 -0.0780  0.4439  0.5414
   82POPC   H5X10953   1.345   2.024   5.052 -0.3073 -0.8805  1.2306
   82POPC   H5Y10954   1.239   2.125   5.157  1.1491  0.9796  0.1250
   82POPC   C3610955   1.164   2.114   4.953 -0.0583 -0.6673  0.1939
   82POPC   H6X10956   1.118   2.034   4.890 -1.9350 -0.5024  1.2680
   82POPC   H6Y10957   1.234   2.173   4.889 -0.9009  0.2777  0.1038
   82POPC   C3710958   1.041   2.204   4.998 -0.6673 -0.6114  0.0581
   82POPC   H7X10959   1.095   2.294   5.035  2.1435 -1.9146 -0.5996
   82POPC   H7Y10960   0.975   2.157   5.074  0.8592  1.1503  2.6370
   82POPC   C3810961   0.948   2.247   4.881 -0.1403  0.0595 -0.4250
   82POPC   H8X10962   0.884   2.161   4.852  0.7866 -0.4816 -0.9075
   82POPC   H8Y10963   1.014   2.270   4.794 -0.8023 -0.4715 -1.0786
   82POPC   C3910964   0.863   2.372   4.912  0.3329 -0.1741  0.6270
   82POPC   H9X10965   0.923   2.457   4.951 -0.1924  0.5328 -0.0572
   82POPC   H9Y10966   0.781   2.357   4.985  0.1793 -0.4836  0.3914
   82POPC  C31010967   0.812   2.421   4.777 -0.6859  0.6592  0.2343
   82POPC  H10X10968   0.782   2.327   4.727  2.8546 -0.3385 -0.2451
   82POPC  H10Y10969   0.893   2.463   4.715  0.1754 -0.1396  0.7949
   82POPC  C31110970   0.694   2.525   4.772 -0.7394  0.2653  0.0591
   82POPC  H11X10971   0.689   2.570   4.670  0.5318  0.3192 -0.0057
   82POPC  H11Y10972   0.716   2.611   4.838  0.1445  0.0659  0.0366
   82POPC  C31210973   0.555   2.475   4.799  0.2679  0.6756 -0.9225
   82POPC  H12X10974   0.563   2.457   4.908 -2.2109  0.1635 -0.7522
   82POPC  H12Y10975   0.534   2.377   4.751 -2.3079  0.4068  0.5308
   82POPC  C31310976   0.449   2.582   4.768 -0.3185  0.3287  0.0951
   82POPC  H13X10977   0.498   2.680   4.754 -0.6865  0.9091  2.3883
   82POPC  H13Y10978   0.381   2.597   4.855 -0.6881  1.1070 -0.3212
   82POPC  C31410979   0.360   2.561   4.652 -0.6436 -0.1611 -0.0342
   82POPC  H14X10980   0.295   2.474   4.677 -0.6070  0.3971  2.2193
   82POPC  H14Y10981   0.431   2.534   4.571 -0.7233 -0.8354  0.1165
   82POPC  C31510982   0.276   2.679   4.612 -0.3559 -0.1734 -0.8252
   82POPC  H15X10983   0.330   2.775   4.620 -2.3168  1.1088 -1.9997
   82POPC  H15Y10984   0.188   2.695   4.678  1.1739  0.0742  1.2665
   82POPC  C31610985   0.227   2.674   4.466  0.3224  0.3798  0.3037
   82POPC  H16X10986   0.200   2.774   4.426 -1.0792  0.3706  1.1517
   82POPC  H16Y10987   0.132   2.616   4.459  0.4430  0.3782 -3.0084
   82POPC  H16Z10988   0.305   2.634   4.397  0.1425  1.1160 -0.3421
   83POPC     N10989   6.343   6.797   6.097  0.4145 -0.3649 -0.8890
   83POPC   C1210990   6.308   6.856   5.965  0.3886 -0.3356 -0.4623
   83POPC  H12A10991   6.204   6.884   5.958 -0.1907 -2.6148 -2.2414
   83POPC  H12B10992   6.321   6.780   5.890  2.9959 -2.0038  1.4906
   83POPC   C1310993   6.483   6.754   6.095 -0.0528 -0.5310 -0.0821
   83POPC  H13A10994   6.553   6.836   6.106 -0.0816 -0.7084  1.7189
   83POPC  H13B10995   6.498   6.675   6.167  1.1023 -1.2366 -1.0532
   83POPC  H13C10996   6.501   6.705   6.000  0.8379  0.0684 -0.2367
   83POPC   C1410997   6.327   6.894   6.211 -0.2506  0.0701 -0.6354
   83POPC  H14A10998   6.382   6.985   6.192 -1.9741  1.0109 -1.3933
   83POPC  H14B10999   6.223   6.920   6.226 -1.0698 -1.3366 -3.1993
   83POPC  H14C11000   6.380   6.857   6.297 -0.4536  2.0437  0.3988
   83POPC   C1511001   6.253   6.676   6.118 -0.0717 -0.0938  0.5436
   83POPC  H15A11002   6.271   6.642   6.219  3.0340 -0.7281 -0.1200
   83POPC  H15B11003   6.275   6.608   6.037 -0.0926  0.0093  0.4514
   83POPC  H15C11004   6.150   6.709   6.108  0.0396  0.3474  0.8177
   83POPC   C1111005   6.404   6.967   5.916  0.2852  0.7489 -0.5592
   83POPC  H11A11006   6.372   6.999   5.814 -1.3946  2.9533  0.5640
   83POPC  H11B11007   6.509   6.930   5.922 -0.4228 -1.3683 -0.2055
   83POPC     P11008   6.490   7.193   6.004  0.0919  0.0242  0.1265
   83POPC   O1311009   6.620   7.131   6.044 -0.4821  0.0086  0.2562
   83POPC   O1411010   6.446   7.314   6.079  0.0994  0.3747  0.0049
   83POPC   O1211011   6.378   7.086   5.992 -0.1907 -0.0264  0.1721
   83POPC   O1111012   6.501   7.244   5.853 -0.2283  0.6502 -0.3799
   83POPC    C111013   6.624   7.220   5.773 -0.2042  0.4573 -0.2933
   83POPC    HA11014   6.672   7.124   5.801 -2.3160 -1.0671 -1.5968
   83POPC    HB11015   6.685   7.312   5.785 -1.1801  1.1428 -0.4246
   83POPC    C211016   6.599   7.210   5.625  0.7521  0.5756  0.0850
   83POPC    HS11017   6.494   7.228   5.595  1.2003 -1.3082 -3.0794
   83POPC   O2111018   6.654   7.090   5.569 -0.2791 -0.5585  0.5662
   83POPC   C2111019   6.581   7.042   5.469 -0.0425  0.3314 -0.0378
   83POPC   O2211020   6.474   7.092   5.438 -0.1810 -0.2673  0.2616
   83POPC   C2211021   6.653   6.932   5.391  0.6044  0.8283 -0.2452
   83POPC   H2R11022   6.650   6.845   5.460 -0.7252  2.0828  1.3481
   83POPC   H2S11023   6.763   6.947   5.381  0.6711 -0.1732 -1.3218
   83POPC    C311024   6.668   7.327   5.546  0.6566 -0.0530  0.1437
   83POPC    HX11025   6.777   7.307   5.546  1.0129  1.3557 -2.8891
   83POPC    HY11026   6.653   7.422   5.602  3.0188  0.4225  0.0558
   83POPC   O3111027   6.617   7.339   5.403 -0.3301  0.3038  0.0704
   83POPC   C3111028   6.498   7.405   5.391 -0.0311 -0.2661 -0.8119
   83POPC   O3211029   6.439   7.445   5.489  0.0665  0.5003 -0.5249
   83POPC   C3211030   6.461   7.429   5.244  0.5811  0.0620  0.3439
   83POPC   H2X11031   6.463   7.335   5.184 -1.3722  0.8604 -1.0598
   83POPC   H2Y11032   6.536   7.502   5.208 -1.3340  0.4266 -3.3764
   83POPC   C2311033   6.590   6.899   5.255 -0.3485  0.4679  0.2085
   83POPC   H3R11034   6.479   6.891   5.256 -0.3419  0.2530 -0.2702
   83POPC   H3S11035   6.625   6.799   5.222 -0.9242 -0.1167  1.3122
   83POPC   C2411036   6.632   7.000   5.148 -0.1077  0.3177  0.6877
   83POPC   H4R11037   6.741   7.004   5.130 -0.3343 -1.1767 -1.4920
   83POPC   H4S11038   6.588   7.096   5.181 -1.5842  0.4082 -1.3363
   83POPC   C2511039   6.567   6.973   5.008  0.5185  0.0884  0.4175
   83POPC   H5R11040   6.456   6.979   5.019  0.6651 -0.3392  2.5808
   83POPC   H5S11041   6.594   6.868   4.987 -1.0262 -0.2250 -0.1781
   83POPC   C2611042   6.633   7.063   4.906 -0.2071  0.1603 -0.2502
   83POPC   H6R11043   6.740   7.078   4.931 -0.1441 -0.6728 -0.0104
   83POPC   H6S11044   6.584   7.160   4.932  0.8449  0.1835  1.9051
   83POPC   C2711045   6.612   7.011   4.763  0.2808  0.4871 -0.4110
   83POPC   H7R11046   6.505   6.992   4.740  0.2821 -1.0833  0.7397
   83POPC   H7S11047   6.654   6.909   4.749 -1.8978 -0.4279 -0.6293
   83POPC   C2811048   6.668   7.101   4.652 -0.3350  0.1293 -0.8084
   83POPC   H8R11049   6.660   7.052   4.553 -0.4654  1.9895 -1.7551
   83POPC   H8S11050   6.774   7.112   4.685 -0.6230  0.0037  0.1924
   83POPC   C2911051   6.609   7.231   4.642  0.1456  0.0224  0.3939
   83POPC   H9111052   6.520   7.247   4.704  0.7544  1.3341  0.9449
   83POPC  C21011053   6.654   7.336   4.572  0.0306 -0.0198  0.4414
   83POPC  H10111054   6.603   7.433   4.570  0.9686  0.5091  1.3060
   83POPC  C21111055   6.782   7.339   4.496 -0.3992 -0.5830 -0.4289
   83POPC  H11R11056   6.816   7.247   4.443  0.7702  1.3060 -3.1958
   83POPC  H11S11057   6.863   7.359   4.570  0.0529  0.5535 -1.2011
   83POPC  C21211058   6.776   7.459   4.398  0.1680  0.2778  1.3150
   83POPC  H12R11059   6.778   7.559   4.447  1.4413  2.4922 -2.7281
   83POPC  H12S11060   6.688   7.449   4.332  2.0783 -2.3072 -1.0902
   83POPC  C21311061   6.899   7.452   4.298 -0.2058  0.4007 -0.0670
   83POPC  H13R11062   6.924   7.359   4.243  2.5160  1.6095 -1.0498
   83POPC  H13S11063   6.995   7.466   4.353 -0.4904 -0.5641  0.7058
   83POPC  C21411064   6.892   7.563   4.192  0.1648  0.1063 -0.1369
   83POPC  H14R11065   6.921   7.657   4.243  2.7297 -1.0316  0.6777
   83POPC  H14S11066   6.788   7.560   4.154 -1.0987 -0.5492  3.0351
   83POPC  C21511067   6.989   7.540   4.070 -1.2112 -0.0271  0.7836
   83POPC  H15R11068   6.964   7.627   4.006 -0.0953  0.9707  1.6473
   83POPC  H15S11069   6.978   7.453   4.001  3.2705 -0.1054 -0.1679
   83POPC  C21611070   7.139   7.539   4.109  0.2053 -0.3643 -0.7004
   83POPC  H16R11071   7.150   7.470   4.195  1.2134  0.6404 -0.0090
   83POPC  H16S11072   7.163   7.642   4.140 -2.2143  1.2402 -3.6460
   83POPC  C21711073   7.237   7.503   3.994  0.6151 -0.1348  0.0656
   83POPC  H17R11074   7.246   7.605   3.952 -0.6540  1.1621  2.6812
   83POPC  H17S11075   7.175   7.446   3.921  0.7018 -0.1752  0.0235
   83POPC  C21811076   7.362   7.439   4.039 -0.6994  0.5607 -0.2493
   83POPC  H18R11077   7.413   7.500   4.116  0.3162 -2.8805  2.0361
   83POPC  H18S11078   7.429   7.399   3.960  0.1458  1.1540  0.1625
   83POPC  H18T11079   7.343   7.339   4.083  1.9418 -0.7194 -1.7769
   83POPC   C3311080   6.315   7.479   5.218 -0.1590  0.5134 -0.6002
   83POPC   H3X11081   6.302   7.538   5.124 -0.0237  0.9153 -0.3729
   83POPC   H3Y11082   6.297   7.568   5.282 -0.3338  0.0035  0.0716
   83POPC   C3411083   6.216   7.366   5.240 -0.1402  1.0263  0.7308
   83POPC   H4X11084   6.114   7.410   5.239 -0.0004  1.3468  0.4691
   83POPC   H4Y11085   6.233   7.319   5.340  1.1295  1.8703  0.9260
   83POPC   C3511086   6.215   7.251   5.130 -0.8041 -0.0989  0.8293
   83POPC   H5X11087   6.141   7.174   5.161  0.7805 -2.5476 -1.0777
   83POPC   H5Y11088   6.314   7.203   5.115 -1.2734 -0.4582 -1.5408
   83POPC   C3611089   6.177   7.298   4.997 -0.7006  0.2431 -0.1034
   83POPC   H6X11090   6.257   7.368   4.965 -0.8924  0.8578  0.7241
   83POPC   H6Y11091   6.076   7.344   5.005 -1.4375 -1.5409  1.7345
   83POPC   C3711092   6.163   7.195   4.891 -0.1352 -0.0570 -0.1026
   83POPC   H7X11093   6.097   7.112   4.923  0.3911 -0.1268  0.8263
   83POPC   H7Y11094   6.256   7.137   4.871 -0.0840  0.1314 -0.4331
   83POPC   C3811095   6.110   7.255   4.760 -0.2494  0.2812  0.3317
   83POPC   H8X11096   6.151   7.358   4.750 -1.1322  0.5372 -0.7843
   83POPC   H8Y11097   6.000   7.266   4.768 -0.3328  0.5549 -1.0731
   83POPC   C3911098   6.159   7.186   4.633 -0.0999  0.1872  0.4563
   83POPC   H9X11099   6.121   7.082   4.639 -3.9012  1.4313  0.9293
   83POPC   H9Y11100   6.267   7.182   4.609 -0.0508 -1.0250  0.8119
   83POPC  C31011101   6.077   7.249   4.525 -0.0000 -0.0935 -0.1175
   83POPC  H10X11102   6.117   7.350   4.501  0.9838 -0.2359  0.8708
   83POPC  H10Y11103   5.972   7.266   4.557 -0.0803 -1.4464  0.4230
   83POPC  C31111104   6.063   7.172   4.393 -0.2727  0.1840  0.2221
   83POPC  H11X11105   6.003   7.080   4.407 -2.2365  1.0790 -1.6824
   83POPC  H11Y11106   6.162   7.128   4.368  0.2368  0.7076  1.2306
   83POPC  C31211107   5.994   7.248   4.278  0.6852 -0.1425 -0.1223
   83POPC  H12X11108   6.044   7.348   4.276  1.4689 -0.4651  1.3806
   83POPC  H12Y11109   5.888   7.255   4.308  0.8833 -0.1464  0.6059
   83POPC  C31311110   6.000   7.180   4.142  0.4635 -0.1172  0.1745
   83POPC  H13X11111   5.942   7.086   4.154  0.6070 -0.0263  1.7695
   83POPC  H13Y11112   6.105   7.158   4.115  0.2137  1.3961 -2.4472
   83POPC  C31411113   5.922   7.253   4.028  0.6124 -0.5428  0.8415
   83POPC  H14X11114   5.984   7.334   3.984 -1.1671  0.0089 -0.8088
   83POPC  H14Y11115   5.829   7.303   4.063  0.1253 -0.3917 -0.6108
   83POPC  C31511116   5.895   7.166   3.909  0.0639 -0.2307  0.6038
   83POPC  H15X11117   5.821   7.087   3.933 -3.4889  2.7770  0.4644
   83POPC  H15Y11118   5.984   7.104   3.886 -0.6165 -1.5979  1.4817
   83POPC  C31611119   5.837   7.239   3.791  0.5392  0.4386  0.4133
   83POPC  H16X11120   5.737   7.283   3.811  0.9431  2.0388 -0.8649
   83POPC  H16Y11121   5.827   7.170   3.705 -1.2019  1.0969  0.0541
   83POPC  H16Z11122   5.913   7.315   3.761 -0.6234  1.2488 -0.5547
   84POPC     N11123   0.372   4.105   5.992  0.7212  0.5993 -0.1129
   84POPC   C1211124   0.438   4.016   5.897 -0.3743  0.1046 -0.2424
   84POPC  H12A11125   0.488   3.940   5.956 -2.3852 -0.6298  0.5788
   84POPC  H12B11126   0.525   4.063   5.853  1.3317 -0.1340  2.5793
   84POPC   C1311127   0.477   4.180   6.059  0.5298 -0.3043 -0.1026
   84POPC  H13A11128   0.545   4.109   6.105  1.6321  0.7876  0.0097
   84POPC  H13B11129   0.523   4.243   5.984 -0.4640  0.5149 -0.0417
   84POPC  H13C11130   0.433   4.240   6.136  0.0181 -2.4336  1.3579
   84POPC   C1411131   0.271   4.193   5.931 -0.0159  0.3446  0.1612
   84POPC  H14A11132   0.224   4.262   6.000 -1.6569 -0.6985  0.1304
   84POPC  H14B11133   0.301   4.242   5.839 -1.1911 -2.6835 -1.9889
   84POPC  H14C11134   0.187   4.133   5.899 -0.9437  1.3416  0.6589
   84POPC   C1511135   0.302   4.030   6.111 -0.4191 -0.1375  0.4647
   84POPC  H15A11136   0.236   3.954   6.069 -0.3254  0.5516 -0.9836
   84POPC  H15B11137   0.239   4.106   6.154 -0.2909  0.3883 -0.2634
   84POPC  H15C11138   0.369   3.981   6.180 -1.8295  0.7863  2.5937
   84POPC   C1111139   0.364   3.948   5.785 -0.6234 -0.2405 -0.0852
   84POPC  H11A11140   0.438   3.870   5.756  1.3397  0.3902  2.7115
   84POPC  H11B11141   0.343   4.021   5.704  1.1408  0.8803  0.4056
   84POPC     P11142   0.105   3.912   5.788  0.0849  0.1178 -0.2114
   84POPC   O1311143   0.042   4.011   5.882 -0.3942 -0.2074 -0.0089
   84POPC   O1411144   0.033   3.788   5.762 -0.2859 -0.2972  0.1778
   84POPC   O1211145   0.250   3.868   5.830 -0.2405  0.1821  0.0962
   84POPC   O1111146   0.125   3.983   5.657  0.1619  0.0828  0.3468
   84POPC    C111147   0.053   4.111   5.627 -0.0584 -0.2130 -0.1238
   84POPC    HA11148   0.105   4.207   5.651 -1.7029  0.8356 -0.6143
   84POPC    HB11149  -0.042   4.119   5.684 -0.9714 -0.9169 -1.4948
   84POPC    C211150   0.010   4.113   5.479  0.4064  0.4054 -0.2950
   84POPC    HS11151  -0.082   4.175   5.469 -0.3502 -0.6091  0.1923
   84POPC   O2111152  -0.011   3.982   5.428 -0.0008 -0.2284 -0.0831
   84POPC   C2111153  -0.102   3.913   5.485 -0.1140  0.4776  0.3798
   84POPC   O2211154  -0.176   3.952   5.572  0.1396 -0.1070 -0.2271
   84POPC   C2211155  -0.112   3.774   5.413  0.2251  0.1980  0.2405
   84POPC   H2R11156  -0.167   3.701   5.476 -1.1657  0.5713 -0.4904
   84POPC   H2S11157  -0.008   3.735   5.402  0.1202 -0.1827  0.5801
   84POPC    C311158   0.117   4.180   5.383 -0.0644  1.2853  0.5286
   84POPC    HX11159   0.219   4.145   5.411 -0.6211 -0.9938 -0.0219
   84POPC    HY11160   0.112   4.290   5.389  2.1729  1.7619 -3.1501
   84POPC   O3111161   0.097   4.159   5.237 -0.5380  0.0387  0.1013
   84POPC   C3111162   0.164   4.061   5.178  0.3189  0.3936  0.2910
   84POPC   O3211163   0.236   3.981   5.230  0.2776  0.3527 -0.3696
   84POPC   C3211164   0.144   4.078   5.037  0.0931 -0.0688 -0.2858
   84POPC   H2X11165   0.208   4.164   5.008 -0.5774  1.4960  2.4843
   84POPC   H2Y11166   0.039   4.091   5.004  0.4440 -1.3735 -2.0014
   84POPC   C2311167  -0.170   3.779   5.276 -0.6337 -0.2576 -1.0689
   84POPC   H3R11168  -0.142   3.678   5.240  0.1026 -0.1269 -0.8819
   84POPC   H3S11169  -0.124   3.851   5.205 -1.1993  0.4377 -0.7425
   84POPC   C2411170  -0.322   3.818   5.264  0.2458  0.1043  0.5786
   84POPC   H4R11171  -0.326   3.915   5.319  0.5363  0.7366 -0.4705
   84POPC   H4S11172  -0.382   3.748   5.326  1.3664 -3.4115 -1.9610
   84POPC   C2511173  -0.382   3.821   5.124 -0.0224  0.1048  0.5080
   84POPC   H5R11174  -0.351   3.729   5.071 -0.8827  0.1745 -0.1256
   84POPC   H5S11175  -0.322   3.892   5.063  0.1620 -0.1079  0.4392
   84POPC   C2611176  -0.531   3.843   5.118  0.1862 -1.3577  0.0538
   84POPC   H6R11177  -0.568   3.859   5.014  1.9627  1.1424 -0.2642
   84POPC   H6S11178  -0.548   3.931   5.183  0.9171 -0.2514 -1.2070
   84POPC   C2711179  -0.608   3.723   5.174  0.4328 -0.0771  0.6519
   84POPC   H7R11180  -0.717   3.743   5.178  0.1956 -1.1760  0.0975
   84POPC   H7S11181  -0.567   3.704   5.275 -0.9492  2.3563  1.7483
   84POPC   C2811182  -0.586   3.601   5.089  0.3498  0.1721 -0.1430
   84POPC   H8R11183  -0.480   3.568   5.077  0.8004  1.5951 -0.2109
   84POPC   H8S11184  -0.607   3.629   4.984  0.2697 -3.3022 -1.1694
   84POPC   C2911185  -0.675   3.484   5.128  0.1557  0.4680  0.5741
   84POPC   H9111186  -0.644   3.434   5.221 -0.2199  0.5820  0.7645
   84POPC  C21011187  -0.787   3.452   5.066  0.1286 -0.4198 -0.5220
   84POPC  H10111188  -0.849   3.365   5.092 -0.1617  0.5150  2.3459
   84POPC  C21111189  -0.841   3.515   4.943 -0.2342  0.0046 -0.0767
   84POPC  H11R11190  -0.804   3.619   4.931 -1.7789  0.5605 -0.3358
   84POPC  H11S11191  -0.950   3.536   4.952 -0.1558  0.7460 -0.8094
   84POPC  C21211192  -0.816   3.436   4.811 -0.2042 -0.5941  0.0413
   84POPC  H12R11193  -0.893   3.356   4.799 -2.3342  1.7053 -3.6195
   84POPC  H12S11194  -0.710   3.402   4.804 -0.7844 -2.3845 -0.7072
   84POPC  C21311195  -0.837   3.534   4.699 -0.0515 -0.6400  0.1480
   84POPC  H13R11196  -0.747   3.597   4.685  1.2838 -2.1894  1.3182
   84POPC  H13S11197  -0.927   3.594   4.726 -0.0199 -0.0774 -0.9729
   84POPC  C21411198  -0.888   3.473   4.561 -0.8208 -0.0994  0.6352
   84POPC  H14R11199  -0.864   3.550   4.485  1.2025 -0.8112  0.4818
   84POPC  H14S11200  -0.998   3.459   4.568 -0.8197 -0.1160  0.6215
   84POPC  C21511201  -0.809   3.343   4.517 -0.3639  0.3101  0.1022
   84POPC  H15R11202  -0.819   3.273   4.603  0.6751  1.1069  0.9079
   84POPC  H15S11203  -0.703   3.375   4.500 -0.4487 -0.0808 -1.2721
   84POPC  C21611204  -0.865   3.283   4.389 -0.0546 -0.1641  0.0618
   84POPC  H16R11205  -0.835   3.344   4.301 -1.1496  0.4238  0.0843
   84POPC  H16S11206  -0.975   3.300   4.393  0.2906  2.2997  0.9806
   84POPC  C21711207  -0.842   3.136   4.375 -0.3605 -0.3771  0.0959
   84POPC  H17R11208  -0.900   3.093   4.459 -1.8599  0.0203 -0.6790
   84POPC  H17S11209  -0.733   3.114   4.379 -0.0253  1.0536 -0.3829
   84POPC  C21811210  -0.895   3.080   4.239  0.3297 -0.0797 -0.3780
   84POPC  H18R11211  -0.880   2.970   4.240  2.2397  0.0607 -3.1350
   84POPC  H18S11212  -0.846   3.135   4.156  1.6742 -0.0918  0.3825
   84POPC  H18T11213  -1.003   3.103   4.227  0.8058  1.0758 -3.2908
   84POPC   C3311214   0.171   3.947   4.953 -0.3912  0.1529  0.3866
   84POPC   H3X11215   0.118   3.857   4.990 -0.7017 -0.8501 -2.2538
   84POPC   H3Y11216   0.280   3.926   4.956 -0.4128  0.1346  1.0967
   84POPC   C3411217   0.166   3.960   4.799  0.6917 -0.0756  0.5385
   84POPC   H4X11218   0.208   3.864   4.762  2.2426  0.5883  0.4966
   84POPC   H4Y11219   0.230   4.048   4.777  0.2799  0.3270  0.9221
   84POPC   C3511220   0.020   3.985   4.740 -0.0521  0.2778 -0.2134
   84POPC   H5X11221   0.032   4.021   4.636 -1.3670 -0.5510 -0.6799
   84POPC   H5Y11222  -0.031   4.073   4.785 -1.8565 -0.8371  0.0455
   84POPC   C3611223  -0.075   3.862   4.738  0.5973 -0.1525  0.8599
   84POPC   H6X11224  -0.139   3.855   4.828  0.3920 -1.8481  0.6021
   84POPC   H6Y11225  -0.010   3.773   4.727 -0.1177 -0.9788  2.9649
   84POPC   C3711226  -0.166   3.859   4.610  0.4180  0.5053 -0.3803
   84POPC   H7X11227  -0.116   3.809   4.524  0.2456 -0.5520  0.1133
   84POPC   H7Y11228  -0.176   3.957   4.559  1.1299 -0.5171 -2.6166
   84POPC   C3811229  -0.307   3.800   4.639 -0.0774  0.1434 -0.7246
   84POPC   H8X11230  -0.343   3.845   4.734  3.7538 -0.3011  1.1260
   84POPC   H8Y11231  -0.298   3.691   4.659  0.5631  0.3835  0.4118
   84POPC   C3911232  -0.409   3.842   4.539  0.0539  0.1331 -0.4150
   84POPC   H9X11233  -0.385   3.785   4.447 -0.7218  0.6424 -0.9404
   84POPC   H9Y11234  -0.407   3.950   4.510 -2.8436  0.3018 -0.3207
   84POPC  C31011235  -0.550   3.793   4.585  0.2456  0.6210  0.7418
   84POPC  H10X11236  -0.561   3.820   4.692 -1.9112  0.9907  0.4698
   84POPC  H10Y11237  -0.548   3.682   4.578 -0.4532  0.6347  0.2038
   84POPC  C31111238  -0.654   3.867   4.504  0.2165  0.1532  0.3475
   84POPC  H11X11239  -0.656   3.977   4.519 -1.9366  0.3013 -0.6328
   84POPC  H11Y11240  -0.762   3.842   4.515 -0.4168  0.8235 -3.3002
   84POPC  C31211241  -0.635   3.855   4.347 -0.1756 -0.2179  0.1887
   84POPC  H12X11242  -0.527   3.873   4.330 -0.0750  1.7979  2.3912
   84POPC  H12Y11243  -0.695   3.928   4.290 -0.7553  1.1268  2.3843
   84POPC  C31311244  -0.680   3.712   4.309 -0.2627 -0.8295  0.2870
   84POPC  H13X11245  -0.791   3.705   4.318 -0.5201 -1.7189 -2.6089
   84POPC  H13Y11246  -0.646   3.639   4.386  1.1768  1.5617  2.0615
   84POPC  C31411247  -0.646   3.690   4.159 -0.1797 -0.4797 -0.0816
   84POPC  H14X11248  -0.670   3.585   4.131  0.2252 -0.4874 -0.4161
   84POPC  H14Y11249  -0.536   3.692   4.144 -0.1217 -0.9898  0.2525
   84POPC  C31511250  -0.723   3.782   4.067  0.4623  0.1197  0.4088
   84POPC  H15X11251  -0.702   3.890   4.076 -0.4682  0.4128 -0.6651
   84POPC  H15Y11252  -0.831   3.775   4.095  0.2900 -2.0955 -0.6178
   84POPC  C31611253  -0.707   3.741   3.916  0.4961 -0.4820  0.4259
   84POPC  H16X11254  -0.602   3.734   3.882  0.8587  2.6252  0.5909
   84POPC  H16Y11255  -0.756   3.813   3.846 -0.3775  0.2177  1.6979
   84POPC  H16Z11256  -0.752   3.640   3.913 -0.8246 -0.0085  2.0703
   85POPC     N11257   7.721   0.946   5.622  0.0735  0.5731 -0.1526
   85POPC   C1211258   7.834   0.854   5.576  1.1273  1.1259 -0.0934
   85POPC  H12A11259   7.856   0.885   5.475  0.9465 -1.5403 -1.0350
   85POPC  H12B11260   7.799   0.752   5.569  1.9923  0.8624 -0.7013
   85POPC   C1311261   7.754   1.093   5.631 -0.0105  0.4120  0.5276
   85POPC  H13A11262   7.661   1.145   5.643 -0.4424  0.0524 -1.0297
   85POPC  H13B11263   7.812   1.127   5.716  0.1256  0.7681  0.2962
   85POPC  H13C11264   7.801   1.124   5.538 -0.2749 -0.7474 -0.0059
   85POPC   C1411265   7.600   0.935   5.534  0.1312  0.8892  0.5420
   85POPC  H14A11266   7.625   0.965   5.433 -1.1599  2.2678  0.6080
   85POPC  H14B11267   7.570   0.832   5.533 -3.0219  1.6602 -2.5655
   85POPC  H14C11268   7.515   0.993   5.566 -2.0948 -2.3070  0.8287
   85POPC   C1511269   7.664   0.905   5.754  0.3662 -0.2510 -0.4002
   85POPC  H15A11270   7.634   0.802   5.762  1.5928 -0.4630  2.3845
   85POPC  H15B11271   7.584   0.973   5.780 -0.3444 -1.0686 -0.4132
   85POPC  H15C11272   7.741   0.919   5.828  0.0985  0.9840 -0.3293
   85POPC   C1111273   7.962   0.847   5.657  0.4863  0.1590  0.6784
   85POPC  H11A11274   7.946   0.818   5.763  1.2614  0.1527  0.7981
   85POPC  H11B11275   8.010   0.947   5.664  0.0282  0.3397  1.2414
   85POPC     P11276   8.071   0.610   5.587 -0.5560  0.1559 -0.0816
   85POPC   O1311277   7.969   0.547   5.669  0.7406  0.3740  0.2713
   85POPC   O1411278   8.215   0.570   5.618  0.2505 -0.3131  0.1155
   85POPC   O1211279   8.052   0.770   5.583 -0.0210 -0.3086 -0.5686
   85POPC   O1111280   8.058   0.571   5.426  0.1907  0.2060 -0.7424
   85POPC    C111281   8.164   0.522   5.352 -0.2335  0.6923 -0.1732
   85POPC    HA11282   8.126   0.473   5.259 -1.5877 -0.0175  0.7227
   85POPC    HB11283   8.216   0.442   5.409 -0.3780 -0.0785 -1.0783
   85POPC    C211284   8.264   0.625   5.299  0.8334  0.0040  0.0072
   85POPC    HS11285   8.305   0.685   5.383 -0.3605  1.0959 -0.1595
   85POPC   O2111286   8.203   0.706   5.200  0.6907  0.0130 -0.1082
   85POPC   C2111287   8.250   0.832   5.191 -0.1932  0.0725 -0.3982
   85POPC   O2211288   8.347   0.875   5.249 -0.5921  0.1414 -1.0819
   85POPC   C2211289   8.154   0.914   5.101 -0.4271  0.2306  0.0368
   85POPC   H2R11290   8.065   0.947   5.159 -0.8301 -0.3223 -0.2526
   85POPC   H2S11291   8.116   0.842   5.025 -1.4188  1.1623 -0.3971
   85POPC    C311292   8.384   0.539   5.242  0.0897  0.7679  0.2036
   85POPC    HX11293   8.352   0.443   5.196  4.3862 -0.9505  0.3124
   85POPC    HY11294   8.446   0.496   5.323  0.1011 -1.5902 -0.9445
   85POPC   O3111295   8.457   0.605   5.146 -0.4743 -0.4266  0.1959
   85POPC   C3111296   8.584   0.620   5.156 -0.2149  0.8327 -0.0901
   85POPC   O3211297   8.653   0.592   5.254 -1.0462  0.5560 -0.3064
   85POPC   C3211298   8.646   0.674   5.032 -0.4366 -0.0984  0.1617
   85POPC   H2X11299   8.723   0.747   5.065  1.0802 -1.1589 -0.9361
   85POPC   H2Y11300   8.573   0.719   4.962  0.1378 -0.0416 -0.4085
   85POPC   C2311301   8.211   1.029   5.027  0.5971  0.0148 -0.2726
   85POPC   H3R11302   8.296   1.083   5.073  2.6660 -2.1869 -1.2852
   85POPC   H3S11303   8.129   1.100   4.999 -0.6263 -1.1744  0.2064
   85POPC   C2411304   8.257   0.993   4.885 -0.3408  0.1858  0.1958
   85POPC   H4R11305   8.275   1.082   4.822 -1.4535  0.0116 -0.3943
   85POPC   H4S11306   8.178   0.933   4.835  0.2533 -0.9207  0.5390
   85POPC   C2511307   8.386   0.909   4.884 -0.7318  0.1731 -0.0795
   85POPC   H5R11308   8.380   0.821   4.951  0.3558 -0.2607 -0.5176
   85POPC   H5S11309   8.482   0.955   4.916  0.2856 -0.9490 -1.3946
   85POPC   C2611310   8.408   0.847   4.743 -0.1133  0.3415 -0.1541
   85POPC   H6R11311   8.505   0.793   4.743  0.9479  2.1318 -1.2733
   85POPC   H6S11312   8.414   0.927   4.666 -1.5727  0.5335 -0.0954
   85POPC   C2711313   8.293   0.751   4.697  0.6105 -0.5280 -0.3968
   85POPC   H7R11314   8.190   0.793   4.698  0.7736  0.3952  4.8105
   85POPC   H7S11315   8.285   0.666   4.768 -0.0917 -0.9472 -0.9578
   85POPC   C2811316   8.326   0.682   4.566 -0.0113 -0.0169  0.5631
   85POPC   H8R11317   8.408   0.610   4.583  0.8409  1.1658  1.6788
   85POPC   H8S11318   8.356   0.762   4.494  0.3221 -0.7912 -0.1721
   85POPC   C2911319   8.194   0.618   4.524 -0.1142  0.3179  0.3490
   85POPC   H9111320   8.117   0.601   4.600 -0.0004 -0.8634  0.2120
   85POPC  C21011321   8.173   0.567   4.399  0.5623 -0.4021 -0.0210
   85POPC  H10111322   8.076   0.520   4.376  0.5138 -0.2885 -0.0516
   85POPC  C21111323   8.280   0.564   4.295  0.1705  0.5897  0.4878
   85POPC  H11R11324   8.371   0.507   4.322 -0.9877 -1.0492  1.0614
   85POPC  H11S11325   8.320   0.665   4.273  1.6813 -0.1964 -0.5687
   85POPC  C21211326   8.225   0.487   4.179  0.4753  0.2834  0.3089
   85POPC  H12R11327   8.300   0.510   4.101  2.4086 -0.7159  1.8016
   85POPC  H12S11328   8.123   0.518   4.146  0.3683  0.3839  0.7261
   85POPC  C21311329   8.259   0.332   4.186  0.7217 -0.8621  0.6126
   85POPC  H13R11330   8.193   0.285   4.263 -0.9493 -0.5375 -0.5675
   85POPC  H13S11331   8.363   0.316   4.220  0.7207  0.7350  1.4446
   85POPC  C21411332   8.243   0.275   4.042 -0.1452 -0.2416 -0.2024
   85POPC  H14R11333   8.247   0.164   4.049  0.0039 -0.1849  0.7072
   85POPC  H14S11334   8.324   0.320   3.980 -1.5064  2.0805 -0.4127
   85POPC  C21511335   8.114   0.303   3.975 -0.1881  0.8596 -0.2475
   85POPC  H15R11336   8.128   0.261   3.873  3.0078  1.1321 -0.0014
   85POPC  H15S11337   8.103   0.411   3.949  0.1100  0.7983 -0.6335
   85POPC  C21611338   7.983   0.257   4.040  0.4124  0.2705 -0.2918
   85POPC  H16R11339   7.982   0.302   4.141  1.3828 -0.4603  0.0657
   85POPC  H16S11340   7.979   0.146   4.053 -2.4831  0.0843 -1.9950
   85POPC  C21711341   7.853   0.297   3.970  0.3284 -0.1957 -0.7047
   85POPC  H17R11342   7.844   0.247   3.871  1.1498  0.0661 -0.9169
   85POPC  H17S11343   7.848   0.405   3.945  2.6615  0.0191 -0.4790
   85POPC  C21811344   7.715   0.266   4.043 -0.4420  0.2405 -0.2161
   85POPC  H18R11345   7.632   0.271   3.968 -1.7346 -0.1981  1.1378
   85POPC  H18S11346   7.687   0.352   4.107  3.1627  3.2287 -2.2682
   85POPC  H18T11347   7.705   0.166   4.091  1.5735  1.2968  2.6804
   85POPC   C3311348   8.709   0.564   4.940 -0.0850  0.1339 -0.7368
   85POPC   H3X11349   8.801   0.528   4.991 -1.6099 -0.5596  1.6825
   85POPC   H3Y11350   8.747   0.613   4.848 -0.4270  1.3327 -0.2564
   85POPC   C3411351   8.610   0.447   4.903 -0.0210  0.3300  0.5630
   85POPC   H4X11352   8.550   0.481   4.816  1.4683  1.9207  0.1089
   85POPC   H4Y11353   8.540   0.423   4.986 -1.3582 -0.4761 -0.7636
   85POPC   C3511354   8.679   0.320   4.859 -0.1903  0.3435 -0.3938
   85POPC   H5X11355   8.723   0.268   4.947  0.2180  0.5176 -0.4956
   85POPC   H5Y11356   8.761   0.336   4.786  0.2372  1.4200  0.3013
   85POPC   C3611357   8.575   0.214   4.805 -0.2161 -0.0817  0.1433
   85POPC   H6X11358   8.502   0.196   4.886  1.0981 -2.0709  0.9692
   85POPC   H6Y11359   8.631   0.120   4.785  0.6325  0.4465  0.0124
   85POPC   C3711360   8.508   0.261   4.682  0.1897 -0.2100  0.0968
   85POPC   H7X11361   8.579   0.286   4.601  1.0920  3.0689  1.6978
   85POPC   H7Y11362   8.448   0.353   4.701  0.6463  0.3124 -0.9001
   85POPC   C3811363   8.410   0.153   4.631 -0.0364  0.6219 -0.5300
   85POPC   H8X11364   8.463   0.058   4.609 -1.4359 -0.2163 -0.3630
   85POPC   H8Y11365   8.378   0.195   4.533  0.7687  0.8386 -0.7050
   85POPC   C3911366   8.282   0.124   4.703 -0.1563  0.2900 -0.5384
   85POPC   H9X11367   8.240   0.221   4.738  0.0654  0.1630  0.0822
   85POPC   H9Y11368   8.302   0.054   4.786  0.9548 -0.1781 -1.1851
   85POPC  C31011369   8.175   0.058   4.613  0.1072 -0.1921  0.3685
   85POPC  H10X11370   8.100   0.012   4.681 -2.0445 -1.3853 -2.5620
   85POPC  H10Y11371   8.228  -0.025   4.561  1.3919  0.5201  0.5096
   85POPC  C31111372   8.101   0.150   4.518 -0.4812 -0.3530 -0.7709
   85POPC  H11X11373   8.175   0.210   4.460  1.1823 -1.2179  0.3628
   85POPC  H11Y11374   8.044   0.223   4.580 -1.2826 -2.6936  1.3975
   85POPC  C31211375   8.004   0.090   4.419  0.6131 -0.1963  0.3080
   85POPC  H12X11376   8.061   0.053   4.331 -0.8677  0.7015 -1.1023
   85POPC  H12Y11377   7.941   0.170   4.374 -1.3310 -0.5344  2.3016
   85POPC  C31311378   7.940  -0.043   4.467  0.2302 -0.1968  0.5000
   85POPC  H13X11379   7.899  -0.039   4.570  0.6219  0.6415  0.6257
   85POPC  H13Y11380   8.017  -0.123   4.461  1.5673  1.1032 -0.3123
   85POPC  C31411381   7.830  -0.108   4.376 -0.0594  0.0829  0.1521
   85POPC  H14X11382   7.740  -0.047   4.351  0.5205  0.8201 -0.1644
   85POPC  H14Y11383   7.799  -0.195   4.437  1.5131  0.6912  1.9000
   85POPC  C31511384   7.892  -0.156   4.243  0.3034 -0.5666  0.5397
   85POPC  H15X11385   7.984  -0.217   4.256  0.9070  0.2606  0.2612
   85POPC  H15Y11386   7.927  -0.065   4.190 -0.9233 -0.2484  0.2437
   85POPC  C31611387   7.789  -0.232   4.156 -0.2767 -0.1165 -0.1597
   85POPC  H16X11388   7.755  -0.326   4.204  0.9528 -1.6513 -2.1491
   85POPC  H16Y11389   7.830  -0.257   4.056  0.8357 -1.7911  0.6676
   85POPC  H16Z11390   7.699  -0.169   4.136 -1.2425 -1.4572 -0.1506
   86POPC     N11391   3.115   7.609   5.999 -0.2178 -0.1344 -0.5183
   86POPC   C1211392   3.144   7.555   5.859  0.5961  0.4259  0.4903
   86POPC  H12A11393   3.228   7.487   5.858 -0.5498 -1.0521 -1.1117
   86POPC  H12B11394   3.184   7.629   5.792  0.1598 -0.4304 -0.7582
   86POPC   C1311395   3.035   7.733   5.988  0.1952 -0.6472  0.2716
   86POPC  H13A11396   3.012   7.784   6.081  1.2232 -1.9600  1.2835
   86POPC  H13B11397   3.098   7.795   5.925 -1.6722  0.6245 -0.4466
   86POPC  H13C11398   2.946   7.718   5.930 -0.1243 -0.5580  0.7365
   86POPC   C1411399   3.043   7.510   6.088 -0.3898  0.2153 -0.3129
   86POPC  H14A11400   3.037   7.552   6.188  1.4667 -0.8320  0.2809
   86POPC  H14B11401   2.944   7.489   6.049  0.1529 -0.0804 -1.5783
   86POPC  H14C11402   3.101   7.419   6.087  1.2744  1.1975  1.0524
   86POPC   C1511403   3.244   7.645   6.061 -0.6593 -0.2344 -0.0360
   86POPC  H15A11404   3.235   7.664   6.167  1.7930 -0.8021  0.3387
   86POPC  H15B11405   3.296   7.721   6.005 -0.2100 -0.6752 -0.2237
   86POPC  H15C11406   3.309   7.559   6.053  0.2801  0.5175 -0.5804
   86POPC   C1111407   3.026   7.496   5.775  0.3414 -0.6894 -0.2524
   86POPC  H11A11408   2.968   7.424   5.837 -0.5013  0.4451  0.3221
   86POPC  H11B11409   3.066   7.438   5.689  0.8181 -0.7759  0.0304
   86POPC     P11410   2.986   7.716   5.631 -0.0958  0.1044 -0.0331
   86POPC   O1311411   3.125   7.761   5.657  0.3899 -0.3329 -0.1854
   86POPC   O1411412   2.880   7.820   5.627 -0.9807 -0.6534 -0.8191
   86POPC   O1211413   2.948   7.612   5.739  0.4203  0.2357 -0.2479
   86POPC   O1111414   2.977   7.626   5.502  0.4336 -0.8387  0.5998
   86POPC    C111415   3.102   7.593   5.440  0.2887 -0.2722 -0.5349
   86POPC    HA11416   3.094   7.498   5.383 -0.7842  0.4401 -1.6219
   86POPC    HB11417   3.188   7.588   5.510  0.8467  1.7629 -1.0318
   86POPC    C211418   3.135   7.698   5.329  0.9111  0.3498  0.6481
   86POPC    HS11419   3.100   7.799   5.359  3.4777  1.3885  0.4424
   86POPC   O2111420   3.058   7.646   5.219  0.8645 -0.3329 -0.3765
   86POPC   C2111421   3.053   7.722   5.112 -0.2651 -0.4620  0.6640
   86POPC   O2211422   3.088   7.840   5.106 -0.2077  0.4868  0.0290
   86POPC   C2211423   2.975   7.651   5.006  0.7665  0.0100 -0.1052
   86POPC   H2R11424   2.965   7.545   5.037 -1.3481  0.0244 -0.5761
   86POPC   H2S11425   3.035   7.653   4.912  1.7522  1.0213  0.5186
   86POPC    C311426   3.293   7.720   5.307  0.1989 -0.5177  0.1700
   86POPC    HX11427   3.341   7.764   5.397 -1.9706  0.5588  0.8543
   86POPC    HY11428   3.290   7.795   5.226 -0.9540 -2.1288 -1.3519
   86POPC   O3111429   3.356   7.601   5.251 -0.4898 -0.5187 -0.2728
   86POPC   C3111430   3.437   7.534   5.328  0.3707  0.5755 -0.2413
   86POPC   O3211431   3.451   7.551   5.448 -0.1406  0.5801 -0.3898
   86POPC   C3211432   3.518   7.434   5.244  0.4148  0.3726  0.4926
   86POPC   H2X11433   3.502   7.456   5.137  0.8504  2.2623  0.7919
   86POPC   H2Y11434   3.493   7.327   5.262 -1.6415  0.4339 -1.5567
   86POPC   C2311435   2.838   7.727   4.968  0.4797  0.3624  0.3592
   86POPC   H3R11436   2.772   7.747   5.055  0.7237 -0.7650  0.8196
   86POPC   H3S11437   2.795   7.651   4.899 -0.1246  0.8618  0.1770
   86POPC   C2411438   2.854   7.862   4.891 -0.3511  0.3105  0.6070
   86POPC   H4R11439   2.931   7.917   4.950  0.7633 -1.8239  1.2689
   86POPC   H4S11440   2.750   7.899   4.895 -1.8297 -3.3614 -0.5068
   86POPC   C2511441   2.879   7.844   4.739 -0.2596  0.5627  0.4335
   86POPC   H5R11442   2.808   7.775   4.689 -0.2994  0.2513  0.9131
   86POPC   H5S11443   2.976   7.790   4.737  0.1814  1.1938  2.3432
   86POPC   C2611444   2.885   7.975   4.660  0.2428 -0.5572  1.0135
   86POPC   H6R11445   2.976   8.031   4.690  1.0774 -0.6560 -1.1543
   86POPC   H6S11446   2.797   8.042   4.670 -0.7920 -1.4446 -1.3644
   86POPC   C2711447   2.893   7.946   4.505  0.8533 -0.3794 -0.1762
   86POPC   H7R11448   2.817   7.866   4.493 -1.5923  1.3001  2.6348
   86POPC   H7S11449   2.995   7.917   4.473 -0.1450 -1.9606 -2.2006
   86POPC   C2811450   2.857   8.077   4.428 -0.2109  0.7519  0.1371
   86POPC   H8R11451   2.755   8.110   4.455  0.2062  0.5300  2.1356
   86POPC   H8S11452   2.849   8.048   4.321 -0.7830  0.4981  0.2438
   86POPC   C2911453   2.955   8.188   4.443 -0.0832 -0.3806  0.8163
   86POPC   H9111454   3.058   8.157   4.462 -0.3819 -1.4246  0.7916
   86POPC  C21011455   2.931   8.320   4.451  0.2429 -0.3420  0.3534
   86POPC  H10111456   3.011   8.394   4.460  0.9547 -1.1579  0.8586
   86POPC  C21111457   2.797   8.392   4.445  0.3237  0.2565  0.4479
   86POPC  H11R11458   2.802   8.456   4.537  0.2463  0.7190  0.1349
   86POPC  H11S11459   2.707   8.329   4.458  2.1910 -2.2696  2.3104
   86POPC  C21211460   2.776   8.488   4.328 -0.4409  0.3184  0.2362
   86POPC  H12R11461   2.873   8.542   4.319  0.8038 -1.5068  2.0017
   86POPC  H12S11462   2.696   8.562   4.351  0.3120  0.3213  3.3168
   86POPC  C21311463   2.772   8.420   4.193 -0.0368 -0.3164  0.4330
   86POPC  H13R11464   2.683   8.354   4.190  1.3024 -2.1937  0.3117
   86POPC  H13S11465   2.857   8.351   4.176  0.0929 -0.0086 -0.2032
   86POPC  C21411466   2.752   8.514   4.073 -0.5745 -0.6221  0.6681
   86POPC  H14R11467   2.845   8.574   4.066 -1.1363  0.1517 -0.6952
   86POPC  H14S11468   2.682   8.597   4.098 -0.2163  0.3003 -1.1938
   86POPC  C21511469   2.700   8.444   3.944  0.4628  0.2414  0.3025
   86POPC  H15R11470   2.611   8.391   3.984  0.9427 -0.9784 -0.1699
   86POPC  H15S11471   2.781   8.376   3.908  2.6566  2.3711  1.0122
   86POPC  C21611472   2.655   8.551   3.839  0.6011 -0.0242  0.3483
   86POPC  H16R11473   2.584   8.616   3.894  2.0891  1.1846  0.8963
   86POPC  H16S11474   2.606   8.505   3.751 -0.1880  1.2506  0.0983
   86POPC  C21711475   2.770   8.634   3.787  0.3657  0.0817  0.0738
   86POPC  H17R11476   2.825   8.686   3.869  1.2268 -1.5654  0.5710
   86POPC  H17S11477   2.725   8.702   3.712 -1.1714 -1.0415 -0.0790
   86POPC  C21811478   2.869   8.550   3.720 -0.3803  0.2264  0.2752
   86POPC  H18R11479   2.917   8.477   3.789  1.1172  0.5306 -0.4088
   86POPC  H18S11480   2.947   8.613   3.672  1.0953 -3.3429 -2.4498
   86POPC  H18T11481   2.818   8.493   3.640 -0.8023 -0.1345  0.7945
   86POPC   C3311482   3.672   7.442   5.273 -0.1925  0.4258  0.7497
   86POPC   H3X11483   3.716   7.341   5.268  0.7793  0.7441  2.3839
   86POPC   H3Y11484   3.683   7.466   5.381  0.8362 -1.3131  1.0656
   86POPC   C3411485   3.749   7.517   5.167 -0.6618  0.2337 -0.7341
   86POPC   H4X11486   3.854   7.502   5.202 -1.2985 -1.4702  0.6315
   86POPC   H4Y11487   3.723   7.624   5.161  0.7421  0.7343  1.0522
   86POPC   C3511488   3.751   7.448   5.028  0.1420 -0.1690 -0.3550
   86POPC   H5X11489   3.646   7.446   4.992 -0.3910 -0.9336  1.1272
   86POPC   H5Y11490   3.775   7.340   5.036  0.7861  0.1105  3.1504
   86POPC   C3611491   3.832   7.512   4.918  0.0652 -0.2202  0.4559
   86POPC   H6X11492   3.938   7.524   4.949  0.2163 -2.8353  1.1300
   86POPC   H6Y11493   3.793   7.614   4.896 -2.7494 -1.2393  0.2179
   86POPC   C3711494   3.839   7.439   4.785  0.3134  0.5482  0.2180
   86POPC   H7X11495   3.742   7.413   4.738 -0.5971 -0.3264  2.4589
   86POPC   H7Y11496   3.875   7.335   4.800 -0.3629  0.3955  0.8226
   86POPC   C3811497   3.933   7.504   4.679 -0.5372 -0.9555  0.0191
   86POPC   H8X11498   4.040   7.519   4.704 -0.0590  0.5913 -2.6323
   86POPC   H8Y11499   3.902   7.608   4.658  1.2155 -1.0033 -3.4573
   86POPC   C3911500   3.932   7.432   4.546  0.2889 -0.0839  0.0938
   86POPC   H9X11501   3.846   7.469   4.486 -0.6524 -1.0141  0.8374
   86POPC   H9Y11502   3.917   7.327   4.577 -1.4829  0.4923  1.3284
   86POPC  C31011503   4.057   7.445   4.466 -1.0722 -0.1822 -0.5503
   86POPC  H10X11504   4.077   7.354   4.405  1.5467 -0.5800  0.7538
   86POPC  H10Y11505   4.147   7.447   4.531 -0.6718  0.5864 -1.0979
   86POPC  C31111506   4.054   7.569   4.370  0.7154 -0.1861  0.1836
   86POPC  H11X11507   4.155   7.577   4.325  1.6412 -0.6436  2.0671
   86POPC  H11Y11508   4.035   7.661   4.430 -1.1317 -0.4319  0.0457
   86POPC  C31211509   3.948   7.553   4.253 -0.3466 -0.2379 -0.4558
   86POPC  H12X11510   3.941   7.645   4.192  0.8056  1.3803  1.7265
   86POPC  H12Y11511   3.855   7.528   4.308  1.4959 -2.8246  1.7853
   86POPC  C31311512   3.981   7.424   4.169 -0.0918 -0.4469  0.0929
   86POPC  H13X11513   3.975   7.329   4.227 -2.8008  0.0872  0.8350
   86POPC  H13Y11514   4.081   7.434   4.124 -0.2750 -1.4131 -0.5551
   86POPC  C31411515   3.872   7.425   4.059 -0.2447 -0.1758 -0.2315
   86POPC  H14X11516   3.923   7.367   3.979 -0.1650  1.7204 -1.6422
   86POPC  H14Y11517   3.856   7.528   4.020 -0.4066 -1.0000 -2.5173
   86POPC  C31511518   3.732   7.366   4.097 -0.3010  0.3109  0.6313
   86POPC  H15X11519   3.685   7.432   4.172  0.6695  1.8317 -0.0515
   86POPC  H15Y11520   3.752   7.268   4.146 -0.0973  0.0409  0.0195
   86POPC  C31611521   3.646   7.342   3.973 -0.1243 -0.7556  0.2078
   86POPC  H16X11522   3.551   7.297   4.009 -0.2701 -0.1236  0.6349
   86POPC  H16Y11523   3.708   7.281   3.904  0.1619 -0.7171  0.4316
   86POPC  H16Z11524   3.632   7.438   3.919  1.0165  0.5083  2.0425
   87POPC     N11525   4.098   7.859   6.084  0.1695  0.2785  0.2006
   87POPC   C1211526   4.068   7.788   5.951 -0.1948  0.3748  0.3603
   87POPC  H12A11527   4.152   7.786   5.883 -0.8255 -2.2487 -0.4796
   87POPC  H12B11528   3.980   7.829   5.904  0.4497  0.1745 -1.0674
   87POPC   C1311529   4.153   7.995   6.066  0.3099  0.2667  0.3131
   87POPC  H13A11530   4.089   8.044   5.994  0.2797 -1.1382 -0.6633
   87POPC  H13B11531   4.140   8.055   6.154  0.7475  2.2516 -0.9082
   87POPC  H13C11532   4.255   7.995   6.029  0.1918  1.4127 -0.0455
   87POPC   C1411533   3.977   7.864   6.176  0.2842 -0.3694 -0.1187
   87POPC  H14A11534   4.012   7.913   6.266 -2.1601 -0.1385  0.7730
   87POPC  H14B11535   3.890   7.919   6.142 -1.5559 -2.3940  1.0988
   87POPC  H14C11536   3.942   7.767   6.205  0.3835 -0.7316 -1.1545
   87POPC   C1511537   4.204   7.780   6.162  0.6177  0.0143 -0.9638
   87POPC  H15A11538   4.300   7.783   6.113  1.5289  1.1847  0.7751
   87POPC  H15B11539   4.177   7.676   6.164  2.8231 -0.6240  1.6393
   87POPC  H15C11540   4.213   7.831   6.257 -1.7290  1.7298 -1.5734
   87POPC   C1111541   4.047   7.631   5.972  0.1513  0.5912  0.7019
   87POPC  H11A11542   3.994   7.596   5.881  0.0862  0.7873  0.6643
   87POPC  H11B11543   3.977   7.608   6.055 -0.0879 -2.3983 -0.2131
   87POPC     P11544   4.236   7.496   5.868 -0.3175 -0.2819  0.1355
   87POPC   O1311545   4.152   7.387   5.814 -0.0960 -0.2725 -0.1875
   87POPC   O1411546   4.373   7.452   5.903  0.3507 -0.4280 -0.1704
   87POPC   O1211547   4.174   7.561   5.990  0.2739 -0.5805  0.1936
   87POPC   O1111548   4.238   7.616   5.764 -0.4384  0.3059  0.0873
   87POPC    C111549   4.352   7.623   5.681 -0.5892 -0.0807 -0.0894
   87POPC    HA11550   4.365   7.529   5.623  2.0212 -0.5697  1.1369
   87POPC    HB11551   4.434   7.646   5.752 -1.5549 -0.9588  1.3448
   87POPC    C211552   4.340   7.745   5.582  0.1606 -0.2689  1.0990
   87POPC    HS11553   4.338   7.838   5.643 -2.1554 -0.0051  0.7194
   87POPC   O2111554   4.212   7.738   5.509  0.0103 -0.8596  0.5660
   87POPC   C2111555   4.120   7.833   5.543  0.5053  0.1428  0.1627
   87POPC   O2211556   4.132   7.917   5.627 -0.4719  0.6272 -0.2577
   87POPC   C2211557   3.987   7.820   5.456  0.2493 -0.3759  0.1461
   87POPC   H2R11558   3.933   7.915   5.476  1.2665 -0.0268  1.3855
   87POPC   H2S11559   3.926   7.744   5.509 -0.3466  0.6034  0.9046
   87POPC    C311560   4.469   7.762   5.491  0.0853 -0.1331  0.3358
   87POPC    HX11561   4.484   7.665   5.438  1.0573  1.7850 -3.2387
   87POPC    HY11562   4.555   7.778   5.558  1.0899 -1.0146 -0.6973
   87POPC   O3111563   4.454   7.864   5.389  1.0992  0.4098 -0.3460
   87POPC   C3111564   4.478   7.984   5.431 -0.1702  0.4809  0.6201
   87POPC   O3211565   4.508   8.008   5.546 -0.3538 -0.8051  0.2702
   87POPC   C3211566   4.446   8.090   5.331  0.1854 -0.2960  0.1718
   87POPC   H2X11567   4.504   8.181   5.355 -0.1630  0.5403 -1.9410
   87POPC   H2Y11568   4.339   8.119   5.344 -0.5034 -1.7014 -1.8139
   87POPC   C2311569   3.995   7.789   5.307 -0.1014 -0.2404  0.7472
   87POPC   H3R11570   3.891   7.781   5.267  1.3326 -2.4199 -3.0978
   87POPC   H3S11571   4.030   7.683   5.301  0.3503 -0.0144 -1.2839
   87POPC   C2411572   4.070   7.901   5.231 -0.0420 -0.1807 -0.1607
   87POPC   H4R11573   4.172   7.909   5.274 -0.3761 -1.0489  0.8295
   87POPC   H4S11574   4.019   7.995   5.262 -1.6805 -1.2355  0.5036
   87POPC   C2511575   4.092   7.877   5.082  0.1383  0.1612  0.5259
   87POPC   H5R11576   4.163   7.792   5.077 -1.2308 -0.9867  0.0274
   87POPC   H5S11577   4.148   7.966   5.046  1.2764 -0.7522 -0.0482
   87POPC   C2611578   3.961   7.852   5.001 -0.0603 -0.1529  0.0182
   87POPC   H6R11579   3.866   7.903   5.031  0.3621  0.8867 -0.3825
   87POPC   H6S11580   3.938   7.744   5.017  2.9013 -0.9171 -0.3561
   87POPC   C2711581   3.975   7.880   4.852 -0.5281 -0.0326  0.0822
   87POPC   H7R11582   3.957   7.788   4.792  1.4328 -1.4076  1.4423
   87POPC   H7S11583   4.083   7.893   4.832 -0.9809  1.2044 -1.7073
   87POPC   C2811584   3.905   8.011   4.810 -0.3067  0.2256  0.3322
   87POPC   H8R11585   3.970   8.085   4.860  1.4120 -1.1676  0.2586
   87POPC   H8S11586   3.806   8.003   4.860 -0.4592 -0.2204 -0.0266
   87POPC   C2911587   3.891   8.032   4.663  0.4889 -0.1119  0.8529
   87POPC   H9111588   3.982   8.024   4.602 -0.5139 -0.2155 -0.6887
   87POPC  C21011589   3.781   8.078   4.598 -0.6823 -0.2085  0.8463
   87POPC  H10111590   3.790   8.123   4.498 -1.8240  0.9678  1.2424
   87POPC  C21111591   3.645   8.093   4.662  0.3097 -0.3843  0.8742
   87POPC  H11R11592   3.634   8.185   4.724 -0.2224  0.5711 -0.5885
   87POPC  H11S11593   3.618   8.006   4.725  1.7404 -1.0537  0.6010
   87POPC  C21211594   3.532   8.086   4.553  0.1693 -0.1487  0.0130
   87POPC  H12R11595   3.440   8.077   4.614  0.4973 -2.8078  0.2130
   87POPC  H12S11596   3.545   7.991   4.497 -1.7242 -0.5927  0.2627
   87POPC  C21311597   3.525   8.209   4.462  0.9266 -0.1434 -0.3940
   87POPC  H13R11598   3.468   8.185   4.370  1.4986 -0.9629 -0.5394
   87POPC  H13S11599   3.620   8.253   4.426  0.9472  0.1417  0.0009
   87POPC  C21411600   3.455   8.322   4.536  0.2927  0.8114  0.2068
   87POPC  H14R11601   3.531   8.339   4.616  1.9574 -1.2122 -0.8351
   87POPC  H14S11602   3.355   8.296   4.577 -0.2221  0.1133 -1.4307
   87POPC  C21511603   3.432   8.449   4.464  0.5468 -0.4077  1.5700
   87POPC  H15R11604   3.500   8.462   4.377 -2.5089  0.6343 -0.8358
   87POPC  H15S11605   3.446   8.542   4.523  0.5095 -0.8417  2.2819
   87POPC  C21611606   3.291   8.442   4.400  0.2013 -0.1480 -0.3057
   87POPC  H16R11607   3.210   8.481   4.465 -0.8010 -1.0950 -0.9390
   87POPC  H16S11608   3.277   8.334   4.378  1.0195 -0.6396  1.4318
   87POPC  C21711609   3.279   8.517   4.266  1.0789  0.3056  0.5771
   87POPC  H17R11610   3.353   8.482   4.191 -0.0802  1.2222 -1.0389
   87POPC  H17S11611   3.310   8.622   4.287  0.8231  0.2917  1.0494
   87POPC  C21811612   3.146   8.499   4.197 -0.3720  0.5402 -0.3990
   87POPC  H18R11613   3.063   8.508   4.270  0.0437  1.9823 -0.0642
   87POPC  H18S11614   3.135   8.401   4.147 -2.7109  1.1179 -1.1237
   87POPC  H18T11615   3.141   8.577   4.118 -0.5433 -0.2640 -1.2023
   87POPC   C3311616   4.458   8.052   5.180  0.1578  0.4054  0.1765
   87POPC   H3X11617   4.418   7.950   5.167  0.2213  0.4474 -0.3948
   87POPC   H3Y11618   4.566   8.043   5.152 -0.4022 -0.1136 -2.0226
   87POPC   C3411619   4.400   8.148   5.074  0.8437  0.1919  0.3225
   87POPC   H4X11620   4.454   8.244   5.093  0.8788 -0.1884  2.4338
   87POPC   H4Y11621   4.291   8.170   5.067  1.0985  1.1781 -1.1252
   87POPC   C3511622   4.444   8.094   4.935 -0.2965 -0.0054  0.0897
   87POPC   H5X11623   4.421   8.168   4.856  0.5564 -0.9411 -1.0830
   87POPC   H5Y11624   4.379   8.004   4.925 -1.2113  0.6609 -0.0838
   87POPC   C3611625   4.596   8.062   4.915  0.3219  0.2130 -0.2504
   87POPC   H6X11626   4.623   7.962   4.954  1.8293  0.7364  0.1034
   87POPC   H6Y11627   4.652   8.144   4.964 -1.4599  1.4679 -0.2166
   87POPC   C3711628   4.629   8.062   4.770  0.2367 -0.2666  0.4533
   87POPC   H7X11629   4.608   8.161   4.725  0.5573 -0.3046  0.2107
   87POPC   H7Y11630   4.578   7.980   4.716  2.5593 -2.5947  1.5491
   87POPC   C3811631   4.781   8.038   4.750 -0.6850  0.1681  0.7653
   87POPC   H8X11632   4.799   7.946   4.811 -0.9317  1.8322  3.5433
   87POPC   H8Y11633   4.839   8.120   4.796 -2.6850  1.6754  0.7351
   87POPC   C3911634   4.818   8.024   4.600  0.6646  0.2187  0.1783
   87POPC   H9X11635   4.764   8.109   4.554 -0.4395  0.3290  1.6143
   87POPC   H9Y11636   4.773   7.929   4.564  1.0844 -0.2632  0.8922
   87POPC  C31011637   4.961   8.017   4.561  0.3524  0.1741  0.3999
   87POPC  H10X11638   5.017   7.942   4.620  2.4804  1.1432 -0.2650
   87POPC  H10Y11639   5.015   8.114   4.573 -0.3337  0.7099 -0.6886
   87POPC  C31111640   4.980   7.969   4.415  0.3498  0.3366 -0.0763
   87POPC  H11X11641   4.958   8.045   4.337  0.1033 -0.6164 -0.9642
   87POPC  H11Y11642   4.905   7.890   4.392  0.5017  0.6358 -1.7465
   87POPC  C31211643   5.119   7.915   4.395  0.0104 -0.3600 -0.2527
   87POPC  H12X11644   5.129   7.826   4.460  1.2515 -1.9767 -2.5314
   87POPC  H12Y11645   5.194   7.991   4.427 -2.0120  0.1191  3.9941
   87POPC  C31311646   5.146   7.878   4.245 -0.1923  0.6043  0.0619
   87POPC  H13X11647   5.159   7.964   4.175 -1.4492  0.8849  0.1622
   87POPC  H13Y11648   5.065   7.815   4.203  0.1181  0.9174 -1.0443
   87POPC  C31411649   5.267   7.787   4.243 -0.3884  0.1480  0.2597
   87POPC  H14X11650   5.258   7.704   4.317 -0.1902 -1.3920 -1.3942
   87POPC  H14Y11651   5.363   7.838   4.268  0.1069 -0.8422  0.4369
   87POPC  C31511652   5.300   7.720   4.112  0.3337  0.2467  0.3551
   87POPC  H15X11653   5.220   7.653   4.076 -0.8067  2.0077 -0.5724
   87POPC  H15Y11654   5.386   7.651   4.127  1.1784  1.4885  1.5247
   87POPC  C31611655   5.342   7.817   4.001  0.0564  0.3807 -0.0452
   87POPC  H16X11656   5.434   7.871   4.032  0.8603 -0.7639 -0.4128
   87POPC  H16Y11657   5.263   7.892   3.977  1.5895  1.6061 -1.5344
   87POPC  H16Z11658   5.367   7.765   3.907 -0.3491  0.4222 -0.1797
   88POPC     N11659   0.194   1.105   5.492 -0.2315  0.3764 -0.2467
   88POPC   C1211660   0.170   1.218   5.598  0.6641  0.1989  0.5680
   88POPC  H12A11661   0.075   1.213   5.649  0.2061  1.2616 -0.1494
   88POPC  H12B11662   0.164   1.308   5.540 -0.0513  0.1569  0.5713
   88POPC   C1311663   0.322   1.133   5.417 -0.0724  0.7246  0.8274
   88POPC  H13A11664   0.408   1.125   5.483  2.2060  0.0758 -2.0336
   88POPC  H13B11665   0.336   1.057   5.342 -0.7063  0.0700  1.3573
   88POPC  H13C11666   0.318   1.232   5.376  0.5657  0.7697  0.8543
   88POPC   C1411667   0.207   0.976   5.559  0.1493 -0.2760  0.3476
   88POPC  H14A11668   0.227   0.897   5.488  0.4808 -0.1152  0.2601
   88POPC  H14B11669   0.286   0.969   5.632  0.2213 -1.9458  0.1402
   88POPC  H14C11670   0.109   0.961   5.603 -1.2853  5.0220 -0.3537
   88POPC   C1511671   0.088   1.099   5.391  0.0486  0.3439 -0.7184
   88POPC  H15A11672   0.116   1.021   5.321  1.6676  1.2833 -1.1835
   88POPC  H15B11673   0.080   1.188   5.331 -0.6476  3.3140  3.4193
   88POPC  H15C11674  -0.005   1.070   5.438  0.8601 -1.5273 -0.1357
   88POPC   C1111675   0.267   1.228   5.714  0.4241  0.0506  0.3742
   88POPC  H11A11676   0.371   1.247   5.678  1.4895  0.2991  3.2975
   88POPC  H11B11677   0.257   1.131   5.767 -1.4434  0.1210  0.2170
   88POPC     P11678   0.332   1.391   5.898  0.0797  0.3911 -0.0120
   88POPC   O1311679   0.428   1.280   5.928 -0.1955  0.1819 -0.1156
   88POPC   O1411680   0.249   1.437   6.018 -0.3845  0.4279  0.1542
   88POPC   O1211681   0.228   1.337   5.790  0.2564 -0.0494 -0.0873
   88POPC   O1111682   0.406   1.516   5.839  0.0620  0.0379 -0.4548
   88POPC    C111683   0.334   1.609   5.763 -0.1293  0.4129 -0.2939
   88POPC    HA11684   0.390   1.704   5.768 -0.8752  0.8020  1.0038
   88POPC    HB11685   0.229   1.614   5.799  0.3909 -0.8451  1.5510
   88POPC    C211686   0.331   1.585   5.609  0.2968  0.8425 -0.4444
   88POPC    HS11687   0.302   1.478   5.596 -0.7920  1.1726 -0.8932
   88POPC   O2111688   0.459   1.607   5.564 -0.6497 -0.0290 -0.2872
   88POPC   C2111689   0.493   1.542   5.454  0.1950 -0.3329  0.2689
   88POPC   O2211690   0.433   1.444   5.407 -0.4166  0.2661  0.9213
   88POPC   C2211691   0.629   1.590   5.402  1.0873 -0.5783 -0.0933
   88POPC   H2R11692   0.708   1.549   5.469 -0.0459 -1.5005  0.7126
   88POPC   H2S11693   0.620   1.700   5.410  0.4155 -0.7757  2.6430
   88POPC    C311694   0.230   1.681   5.549  0.2457 -0.0779 -0.3576
   88POPC    HX11695   0.264   1.784   5.574  1.1637 -0.0994 -1.4287
   88POPC    HY11696   0.130   1.664   5.594  0.5667 -1.6500 -0.2059
   88POPC   O3111697   0.216   1.665   5.405 -0.1274 -0.5303  0.0314
   88POPC   C3111698   0.152   1.554   5.367 -0.1789 -0.1910 -0.2550
   88POPC   O3211699   0.100   1.478   5.440  0.5524  0.1952 -0.6259
   88POPC   C3211700   0.161   1.545   5.214  0.3609  0.2986 -0.2695
   88POPC   H2X11701   0.265   1.581   5.202  0.8549 -1.2632 -0.9877
   88POPC   H2Y11702   0.098   1.620   5.160  1.0264  0.1337 -1.2994
   88POPC   C2311703   0.656   1.531   5.259  0.0380 -0.2047 -0.8375
   88POPC   H3R11704   0.573   1.572   5.198 -0.5599  0.0632  0.1523
   88POPC   H3S11705   0.651   1.420   5.263  1.1349 -0.2732 -0.8746
   88POPC   C2411706   0.783   1.584   5.198  0.2028  0.5258  0.1835
   88POPC   H4R11707   0.871   1.552   5.257  0.9922 -2.3896 -2.2872
   88POPC   H4S11708   0.792   1.694   5.209 -0.1367  1.0180 -3.1654
   88POPC   C2511709   0.806   1.559   5.046 -1.0299  0.4551  0.4354
   88POPC   H5R11710   0.759   1.628   4.972  3.4240  2.8416 -0.5435
   88POPC   H5S11711   0.758   1.463   5.019 -1.7848  1.0866 -0.6027
   88POPC   C2611712   0.956   1.570   5.001  0.2383  0.2461 -0.0215
   88POPC   H6R11713   1.024   1.514   5.069  0.7244  1.5832  0.6560
   88POPC   H6S11714   0.983   1.677   5.017  0.3666 -0.0332  1.9285
   88POPC   C2711715   0.986   1.526   4.850  0.2011  0.9169  0.1692
   88POPC   H7R11716   0.947   1.604   4.781 -0.0506 -0.2997 -1.1033
   88POPC   H7S11717   0.916   1.441   4.837 -0.3235  1.5140 -1.1404
   88POPC   C2811718   1.122   1.479   4.824 -0.3365 -0.1266 -0.4526
   88POPC   H8R11719   1.127   1.440   4.720 -3.8496 -3.5910  0.4595
   88POPC   H8S11720   1.145   1.396   4.895 -2.1229 -1.2074 -1.0849
   88POPC   C2911721   1.220   1.594   4.844  0.0805 -0.5365  0.3042
   88POPC   H9111722   1.213   1.626   4.949 -0.4163 -0.3033  0.2023
   88POPC  C21011723   1.290   1.670   4.762 -0.1551 -0.0378 -0.0112
   88POPC  H10111724   1.365   1.740   4.803  2.5086 -1.5033 -2.0269
   88POPC  C21111725   1.292   1.653   4.609 -0.1284  0.2831  0.1343
   88POPC  H11R11726   1.292   1.757   4.570  0.0785 -0.4864 -2.0588
   88POPC  H11S11727   1.205   1.586   4.591  0.3168 -0.0251 -0.8994
   88POPC  C21211728   1.412   1.579   4.536  0.3179 -0.3026 -0.7717
   88POPC  H12R11729   1.362   1.557   4.439  0.1429 -1.1033 -0.5052
   88POPC  H12S11730   1.422   1.481   4.588 -2.5392  0.3088  1.1723
   88POPC  C21311731   1.537   1.672   4.531  0.7326 -0.4046  0.0058
   88POPC  H13R11732   1.589   1.702   4.625  0.1381  1.5806 -0.2593
   88POPC  H13S11733   1.506   1.771   4.491 -0.6916 -0.7405  0.2304
   88POPC  C21411734   1.646   1.601   4.454 -0.2233  0.1400  0.1824
   88POPC  H14R11735   1.670   1.511   4.515 -2.7402 -0.1391  0.9036
   88POPC  H14S11736   1.723   1.680   4.456 -0.4821  0.5806 -2.6453
   88POPC  C21511737   1.615   1.575   4.307  0.8565 -0.8278  0.2614
   88POPC  H15R11738   1.580   1.666   4.253 -2.9459 -2.8225 -1.0712
   88POPC  H15S11739   1.527   1.506   4.304  0.0057  0.2480 -0.7521
   88POPC  C21611740   1.721   1.503   4.231 -0.4635 -0.4676  0.8269
   88POPC  H16R11741   1.723   1.396   4.263 -0.8178 -0.9737 -0.7520
   88POPC  H16S11742   1.822   1.547   4.247 -1.3387  1.2351  1.9404
   88POPC  C21711743   1.678   1.493   4.088 -0.9458  0.5059  1.1866
   88POPC  H17R11744   1.694   1.587   4.031  0.3352 -0.7060 -0.5536
   88POPC  H17S11745   1.568   1.477   4.089 -0.9783  0.7185  0.9809
   88POPC  C21811746   1.748   1.379   4.003 -0.4700 -0.1001 -0.1918
   88POPC  H18R11747   1.718   1.392   3.897  0.7864 -1.7139 -0.7832
   88POPC  H18S11748   1.713   1.280   4.039 -1.2999  0.2241 -0.0680
   88POPC  H18T11749   1.858   1.395   4.006 -0.4962  0.2102 -0.7563
   88POPC   C3311750   0.144   1.408   5.155  0.5633  0.1161  1.2812
   88POPC   H3X11751   0.042   1.370   5.181  0.8498 -1.2409  0.5654
   88POPC   H3Y11752   0.220   1.339   5.198  1.5829  1.3113  1.4235
   88POPC   C3411753   0.161   1.404   5.003  0.3498 -0.2889 -0.3711
   88POPC   H4X11754   0.128   1.501   4.959  1.6133  1.1072  1.5829
   88POPC   H4Y11755   0.103   1.327   4.948 -0.5412  2.2043 -3.1963
   88POPC   C3511756   0.312   1.386   4.964 -0.4408  0.5818  0.3735
   88POPC   H5X11757   0.334   1.277   4.958 -0.1008  0.7260 -2.4548
   88POPC   H5Y11758   0.370   1.431   5.047 -0.1768 -0.3398  0.6990
   88POPC   C3611759   0.342   1.450   4.828 -0.4689  0.1374 -0.0452
   88POPC   H6X11760   0.335   1.560   4.842  0.8802  0.3479 -0.8909
   88POPC   H6Y11761   0.261   1.423   4.757 -1.0387 -0.9718  0.9714
   88POPC   C3711762   0.472   1.403   4.763  0.2705  0.0277 -0.9621
   88POPC   H7X11763   0.472   1.298   4.727  2.9305 -0.2089 -0.4439
   88POPC   H7Y11764   0.557   1.411   4.834 -0.6029 -2.8625  0.5815
   88POPC   C3811765   0.502   1.497   4.650  0.2217  0.1683  0.1794
   88POPC   H8X11766   0.515   1.597   4.698  1.6744  0.1158 -0.0656
   88POPC   H8Y11767   0.421   1.503   4.574 -2.6927  1.6844  3.1440
   88POPC   C3911768   0.640   1.447   4.587 -0.1787 -0.5050  0.3328
   88POPC   H9X11769   0.636   1.342   4.552  1.5224 -0.4325 -0.1774
   88POPC   H9Y11770   0.722   1.442   4.661 -0.6776  1.6155  1.1214
   88POPC  C31011771   0.693   1.541   4.475  0.2291  0.5690  0.5033
   88POPC  H10X11772   0.742   1.630   4.520 -0.0559  1.3901 -0.7720
   88POPC  H10Y11773   0.602   1.559   4.414 -0.1615 -1.3383  0.4511
   88POPC  C31111774   0.794   1.456   4.389 -0.6285  0.1921  0.4444
   88POPC  H11X11775   0.785   1.497   4.286  2.1540 -0.2265 -0.0368
   88POPC  H11Y11776   0.773   1.346   4.393  0.4964 -0.2905 -3.1355
   88POPC  C31211777   0.944   1.470   4.434  0.5556 -0.4896 -0.1690
   88POPC  H12X11778   0.952   1.432   4.539 -0.2216 -3.2968 -1.0380
   88POPC  H12Y11779   0.960   1.579   4.430 -0.9601 -0.2047  0.6198
   88POPC  C31311780   1.052   1.410   4.337  0.3434 -0.0647  0.1614
   88POPC  H13X11781   1.079   1.302   4.346  1.6900  0.3476  1.4692
   88POPC  H13Y11782   1.142   1.467   4.366  0.7902 -0.1198 -1.0458
   88POPC  C31411783   1.032   1.443   4.189 -0.0891  0.5557 -0.6447
   88POPC  H14X11784   0.977   1.540   4.190 -1.1717 -0.0375 -1.6080
   88POPC  H14Y11785   0.974   1.371   4.129  2.7677 -2.2147 -0.3297
   88POPC  C31511786   1.170   1.461   4.117 -0.2715 -0.0238  0.6336
   88POPC  H15X11787   1.143   1.475   4.010 -0.7423 -0.8676  0.6316
   88POPC  H15Y11788   1.231   1.368   4.124  0.5081  0.1621 -2.3813
   88POPC  C31611789   1.242   1.596   4.157  0.3717 -0.0234 -0.4224
   88POPC  H16X11790   1.163   1.673   4.145 -1.7818 -2.3919 -2.3416
   88POPC  H16Y11791   1.325   1.610   4.084  1.7084 -2.0046  0.6054
   88POPC  H16Z11792   1.277   1.597   4.263  0.1594 -1.0494 -0.3275
   89POPC     N11793   1.345   6.063   5.706  0.1643  0.4551  0.1415
   89POPC   C1211794   1.199   6.103   5.696  0.2760 -0.1584 -0.1164
   89POPC  H12A11795   1.141   6.027   5.646 -0.8108  0.9201 -0.5367
   89POPC  H12B11796   1.213   6.196   5.642  2.5168  0.1506  0.8615
   89POPC   C1311797   1.434   6.164   5.767 -0.0218 -0.3491 -0.2329
   89POPC  H13A11798   1.459   6.244   5.699 -1.1749  1.4041  1.2951
   89POPC  H13B11799   1.385   6.220   5.845  2.1630  0.8267  0.3684
   89POPC  H13C11800   1.530   6.123   5.794 -0.3691  0.0199  1.6995
   89POPC   C1411801   1.361   5.940   5.798 -0.1198  0.5194  0.4854
   89POPC  H14A11802   1.295   5.862   5.763  0.1337  1.0277 -1.2330
   89POPC  H14B11803   1.463   5.906   5.798 -0.4650 -0.6389 -1.3868
   89POPC  H14C11804   1.335   5.965   5.900  3.0501  0.8107  1.3211
   89POPC   C1511805   1.413   6.028   5.572 -0.1616 -0.4517 -0.8145
   89POPC  H15A11806   1.357   5.955   5.515 -1.9570 -0.4442  0.8244
   89POPC  H15B11807   1.511   5.986   5.590 -0.0932  0.1432  0.3518
   89POPC  H15C11808   1.423   6.115   5.510  0.0327  1.3965  1.6600
   89POPC   C1111809   1.122   6.142   5.828 -1.0520 -0.1775 -0.5761
   89POPC  H11A11810   1.137   6.063   5.904 -0.3201  2.0210  1.6859
   89POPC  H11B11811   1.013   6.155   5.808 -0.5112 -0.4687 -4.4296
   89POPC     P11812   1.119   6.407   5.857  0.2178  0.2667  0.3066
   89POPC   O1311813   1.211   6.514   5.900  0.1434  0.4338  0.8229
   89POPC   O1411814   0.992   6.405   5.934  0.0237  0.8569 -0.2885
   89POPC   O1211815   1.179   6.262   5.880 -0.2089  0.6203  0.0599
   89POPC   O1111816   1.087   6.403   5.701 -0.0644 -0.0443 -0.2190
   89POPC    C111817   1.111   6.534   5.644  0.2903 -1.2046  0.2117
   89POPC    HA11818   1.217   6.566   5.636 -0.5516  1.4275 -2.2715
   89POPC    HB11819   1.059   6.618   5.695  1.7154 -0.6724  0.8337
   89POPC    C211820   1.079   6.535   5.488  0.2863  0.0554 -0.6355
   89POPC    HS11821   1.106   6.639   5.458 -2.3286  0.3689 -2.2348
   89POPC   O2111822   0.938   6.518   5.476  0.2081  0.3025  0.1527
   89POPC   C2111823   0.849   6.610   5.512  0.4754 -0.4077 -0.0902
   89POPC   O2211824   0.878   6.726   5.551 -0.5608  0.4712 -0.4968
   89POPC   C2211825   0.706   6.558   5.485  0.3680  0.1123 -0.5239
   89POPC   H2R11826   0.641   6.647   5.487  1.5034  0.9485  0.2196
   89POPC   H2S11827   0.676   6.486   5.564  1.6270  0.6534  0.4955
   89POPC    C311828   1.170   6.439   5.405 -0.1717 -0.1340  0.4067
   89POPC    HX11829   1.167   6.341   5.458 -3.7083  0.1447  0.9470
   89POPC    HY11830   1.272   6.484   5.404 -0.4999  0.6851 -2.2485
   89POPC   O3111831   1.130   6.435   5.264  0.2202  0.5401 -0.4258
   89POPC   C3111832   1.034   6.347   5.227  0.3581 -0.5954  0.7416
   89POPC   O3211833   0.986   6.262   5.299  0.0400 -0.2412 -0.1496
   89POPC   C3211834   0.989   6.372   5.084 -0.1604 -0.5899  0.5490
   89POPC   H2X11835   1.057   6.441   5.031  0.7836 -1.5391  0.4829
   89POPC   H2Y11836   0.886   6.413   5.090  1.0294  2.6966  0.2351
   89POPC   C2311837   0.687   6.488   5.345 -0.8600 -0.3697 -0.0321
   89POPC   H3R11838   0.586   6.443   5.341 -0.3160 -1.6747  0.3172
   89POPC   H3S11839   0.752   6.398   5.342  0.6858  0.7181 -0.2685
   89POPC   C2411840   0.718   6.577   5.230 -0.1412 -0.4494  0.2915
   89POPC   H4R11841   0.714   6.512   5.139  2.2258  0.7463 -0.7480
   89POPC   H4S11842   0.822   6.611   5.243 -0.4911  0.6076  0.3762
   89POPC   C2511843   0.625   6.695   5.208  0.3823 -0.4293  0.2602
   89POPC   H5R11844   0.629   6.754   5.302 -1.2479  0.3798 -0.1500
   89POPC   H5S11845   0.523   6.653   5.194  0.2569  0.7358 -3.0706
   89POPC   C2611846   0.668   6.772   5.082 -0.0105  0.6268 -0.1529
   89POPC   H6R11847   0.773   6.807   5.083  0.2446 -0.0969 -1.0824
   89POPC   H6S11848   0.603   6.862   5.079  0.6410  1.1274  0.4555
   89POPC   C2711849   0.660   6.702   4.948  0.3412 -0.4004  0.2707
   89POPC   H7R11850   0.686   6.594   4.956 -1.1698 -0.6777  2.1934
   89POPC   H7S11851   0.730   6.761   4.885 -2.4611  3.1766  0.1741
   89POPC   C2811852   0.519   6.714   4.887  0.0957 -0.7818 -0.3693
   89POPC   H8R11853   0.439   6.679   4.956  0.0797 -0.4742 -0.2338
   89POPC   H8S11854   0.523   6.648   4.798  1.4561  0.5752 -1.3611
   89POPC   C2911855   0.497   6.860   4.837  0.4120  0.2485 -0.2540
   89POPC   H9111856   0.450   6.933   4.905 -0.0103  0.0077 -0.2775
   89POPC  C21011857   0.554   6.900   4.720  0.3886  0.1056  0.0915
   89POPC  H10111858   0.542   7.003   4.683 -0.3256 -0.5070 -1.4304
   89POPC  C21111859   0.620   6.811   4.614  0.1768  0.3582  0.3575
   89POPC  H11R11860   0.681   6.729   4.657 -0.6840 -0.7081 -0.3989
   89POPC  H11S11861   0.688   6.873   4.554 -0.3848 -1.1639 -1.9763
   89POPC  C21211862   0.526   6.749   4.498 -0.5546 -0.2339 -0.5267
   89POPC  H12R11863   0.478   6.657   4.539  0.9627 -0.3583  1.1302
   89POPC  H12S11864   0.591   6.725   4.411  4.5674  1.3024  2.4342
   89POPC  C21311865   0.407   6.837   4.442 -0.7023 -0.6323  0.3359
   89POPC  H13R11866   0.375   6.898   4.529  0.9747  0.2149  0.3987
   89POPC  H13S11867   0.330   6.765   4.407  1.9320 -2.4718 -2.2507
   89POPC  C21411868   0.440   6.926   4.322  0.3484  0.3112  0.2310
   89POPC  H14R11869   0.459   6.859   4.235 -1.4788  0.2724 -0.1775
   89POPC  H14S11870   0.522   6.995   4.352  0.6937  0.4142 -0.9171
   89POPC  C21511871   0.328   7.021   4.276  0.6553  0.4197 -0.0691
   89POPC  H15R11872   0.322   7.105   4.349 -2.1789 -2.1271  2.9808
   89POPC  H15S11873   0.228   6.975   4.262  1.3880 -1.7581  1.2464
   89POPC  C21611874   0.356   7.095   4.147 -0.7692 -0.9803  0.6412
   89POPC  H16R11875   0.376   7.013   4.075  0.6005 -0.1308  0.0118
   89POPC  H16S11876   0.446   7.160   4.152 -0.9888 -0.6739  0.6969
   89POPC  C21711877   0.238   7.165   4.087  0.1139 -0.5176 -0.1471
   89POPC  H17R11878   0.164   7.088   4.058 -0.8080  0.3569 -0.1689
   89POPC  H17S11879   0.264   7.225   3.997  0.2924 -0.7659 -0.2618
   89POPC  C21811880   0.158   7.248   4.181 -0.6365 -0.0004 -0.1622
   89POPC  H18R11881   0.070   7.301   4.138 -0.7128 -0.7703 -0.9720
   89POPC  H18S11882   0.221   7.317   4.241 -0.4431  0.2232 -0.6210
   89POPC  H18T11883   0.128   7.177   4.261 -0.1717 -1.6561 -1.4085
   89POPC   C3311884   0.985   6.239   4.996 -0.0801 -0.0288  0.3646
   89POPC   H3X11885   0.950   6.148   5.050  1.3004 -0.5394  0.4248
   89POPC   H3Y11886   1.091   6.213   4.974 -0.1686  0.4355 -0.6613
   89POPC   C3411887   0.922   6.273   4.853  0.4095 -1.0461  0.0675
   89POPC   H4X11888   0.927   6.188   4.781 -2.6231 -0.7034 -0.6878
   89POPC   H4Y11889   0.993   6.355   4.830  0.3811 -1.2947 -0.9676
   89POPC   C3511890   0.778   6.321   4.843 -0.7930 -1.3057  0.2788
   89POPC   H5X11891   0.767   6.409   4.910  1.5591 -1.2634  0.7082
   89POPC   H5Y11892   0.715   6.233   4.868  0.6100 -2.7688 -1.1212
   89POPC   C3611893   0.742   6.376   4.698 -0.7554 -0.0994 -0.2717
   89POPC   H6X11894   0.798   6.469   4.673 -0.5592 -0.8351 -2.8785
   89POPC   H6Y11895   0.636   6.406   4.713 -1.1834 -1.9035  0.5270
   89POPC   C3711896   0.741   6.276   4.581 -0.5790 -0.5415  0.0362
   89POPC   H7X11897   0.701   6.186   4.634 -2.2352  1.2340  1.9798
   89POPC   H7Y11898   0.847   6.267   4.548  0.5142 -0.6291  3.2386
   89POPC   C3811899   0.643   6.314   4.468 -0.2154 -0.0496 -0.0993
   89POPC   H8X11900   0.558   6.374   4.506  0.0182  0.3749 -0.2442
   89POPC   H8Y11901   0.592   6.221   4.434 -2.1626  1.4946 -1.6607
   89POPC   C3911902   0.710   6.376   4.349  0.7423  0.2062 -0.3017
   89POPC   H9X11903   0.769   6.461   4.388 -0.8137  1.1578  0.0662
   89POPC   H9Y11904   0.639   6.413   4.271  0.0684  0.4017  0.3883
   89POPC  C31011905   0.827   6.287   4.283  0.8456 -0.6447  0.6858
   89POPC  H10X11906   0.898   6.259   4.364 -0.0187 -1.9124  1.0277
   89POPC  H10Y11907   0.888   6.351   4.216  2.6439 -1.7922  1.1600
   89POPC  C31111908   0.760   6.159   4.218 -0.0170  0.5125  0.3909
   89POPC  H11X11909   0.672   6.179   4.153 -0.5643  0.4669  1.0958
   89POPC  H11Y11910   0.717   6.093   4.296  1.0257 -0.1435  0.4141
   89POPC  C31211911   0.874   6.080   4.149  0.0764  0.2998 -0.5332
   89POPC  H12X11912   0.827   5.988   4.109 -0.6469 -0.2920  1.5100
   89POPC  H12Y11913   0.962   6.047   4.209  1.3799  0.0168 -2.5279
   89POPC  C31311914   0.947   6.161   4.041  0.3533 -0.3758  0.2156
   89POPC  H13X11915   1.012   6.234   4.094  1.0110 -0.4790 -0.4330
   89POPC  H13Y11916   0.874   6.212   3.974 -1.3199 -0.7731  1.6678
   89POPC  C31411917   1.015   6.070   3.936 -0.5340 -1.2835 -0.1983
   89POPC  H14X11918   1.115   6.029   3.964 -0.8205 -0.4142  2.4082
   89POPC  H14Y11919   1.034   6.138   3.850 -0.4909 -1.5515 -0.4020
   89POPC  C31511920   0.925   5.956   3.891  0.2459 -0.3600  0.0361
   89POPC  H15X11921   0.823   5.998   3.887 -0.7255 -2.2938  2.2603
   89POPC  H15Y11922   0.918   5.877   3.968 -3.0676 -0.8717 -0.6643
   89POPC  C31611923   0.963   5.904   3.753  0.2893  0.1419 -0.0930
   89POPC  H16X11924   0.872   5.894   3.690  1.5814 -1.3212 -1.8275
   89POPC  H16Y11925   1.003   5.801   3.767 -2.2471 -0.6985  1.8125
   89POPC  H16Z11926   1.032   5.963   3.689  1.0465 -1.7581 -1.1188
   90POPC     N11927   7.918   7.003   6.126  0.3470  0.0621 -0.6476
   90POPC   C1211928   7.901   7.080   5.991 -0.7499 -0.5932 -0.2186
   90POPC  H12A11929   8.000   7.093   5.950 -1.0491  0.9394 -0.5274
   90POPC  H12B11930   7.877   7.183   6.012  2.3024  0.5410 -1.7648
   90POPC   C1311931   7.785   7.006   6.192  0.0169 -0.0775  0.2810
   90POPC  H13A11932   7.717   6.959   6.123 -0.4731  1.6645 -0.4718
   90POPC  H13B11933   7.799   6.950   6.284  3.8679  0.6956  0.3510
   90POPC  H13C11934   7.742   7.101   6.220  0.4315 -0.1209  1.1192
   90POPC   C1411935   7.959   6.873   6.092  0.2197  0.5600  0.6419
   90POPC  H14A11936   7.958   6.807   6.178  0.5552  0.7444  0.7892
   90POPC  H14B11937   7.900   6.812   6.025 -2.2786  0.9363  2.3522
   90POPC  H14C11938   8.059   6.859   6.053 -0.7361 -1.2366 -1.3709
   90POPC   C1511939   8.029   7.065   6.205  0.5117 -0.0779  0.4020
   90POPC  H15A11940   8.051   7.011   6.295  1.5979  1.9342  1.4058
   90POPC  H15B11941   8.010   7.167   6.233  1.1885  0.0894  0.2789
   90POPC  H15C11942   8.121   7.068   6.147  0.9296  1.9543  1.0928
   90POPC   C1111943   7.808   7.029   5.882  0.0330  0.6621 -0.5304
   90POPC  H11A11944   7.842   6.932   5.842 -1.2224 -0.5681  1.2451
   90POPC  H11B11945   7.824   7.097   5.795  0.7255 -1.3697 -2.0445
   90POPC     P11946   7.586   7.155   5.951 -0.1813 -0.3667 -0.1018
   90POPC   O1311947   7.673   7.272   5.931 -0.4726  0.1896  0.1017
   90POPC   O1411948   7.509   7.156   6.076 -0.1512 -0.1146 -0.3795
   90POPC   O1211949   7.670   7.019   5.934 -0.3022 -0.6068  0.0735
   90POPC   O1111950   7.479   7.147   5.828 -0.3319 -0.1147  0.2118
   90POPC    C111951   7.406   7.030   5.792 -0.6622 -0.1529  0.4000
   90POPC    HA11952   7.305   7.051   5.750 -0.5503 -1.6912 -0.7185
   90POPC    HB11953   7.384   6.967   5.881  1.7969  1.0782  2.0050
   90POPC    C211954   7.477   6.929   5.697 -0.3930  0.3760 -0.2273
   90POPC    HS11955   7.586   6.923   5.717 -0.0537  0.8939 -1.7859
   90POPC   O2111956   7.455   6.962   5.563 -0.1260  0.0333  0.0615
   90POPC   C2111957   7.538   7.050   5.515 -0.0093 -0.1437  0.1999
   90POPC   O2211958   7.625   7.102   5.579  0.4332 -0.3169 -0.3642
   90POPC   C2211959   7.486   7.094   5.373 -0.4116  0.3237 -0.8146
   90POPC   H2R11960   7.525   7.193   5.341 -1.4416  0.6757 -1.0277
   90POPC   H2S11961   7.375   7.100   5.372 -0.4693 -0.6779 -1.7293
   90POPC    C311962   7.412   6.788   5.727 -0.8012  0.6135  0.2083
   90POPC    HX11963   7.303   6.809   5.732 -0.8809  0.6002 -1.2561
   90POPC    HY11964   7.445   6.760   5.830 -0.8258  1.5587  0.4839
   90POPC   O3111965   7.434   6.679   5.630 -0.7109 -0.2374  0.1254
   90POPC   C3111966   7.551   6.609   5.644  0.7410 -0.2716 -0.6537
   90POPC   O3211967   7.642   6.640   5.717 -0.1128  0.2667  1.3539
   90POPC   C3211968   7.566   6.505   5.528  0.5125  0.5279 -0.3505
   90POPC   H2X11969   7.517   6.410   5.558 -2.1667  1.6888 -0.7412
   90POPC   H2Y11970   7.677   6.497   5.521  0.4002  0.1844 -2.3130
   90POPC   C2311971   7.511   6.983   5.268  0.3689 -0.1886 -0.5595
   90POPC   H3R11972   7.435   6.994   5.187  1.5719 -1.0284 -1.8523
   90POPC   H3S11973   7.499   6.885   5.319 -1.0802  0.1412 -0.2246
   90POPC   C2411974   7.654   6.990   5.214  0.2830  0.0558 -0.6157
   90POPC   H4R11975   7.732   6.978   5.292 -1.5940 -1.2473  1.1755
   90POPC   H4S11976   7.681   7.092   5.180  0.5234  0.1389 -0.1760
   90POPC   C2511977   7.685   6.889   5.102 -0.5101  0.4306 -0.8267
   90POPC   H5R11978   7.642   6.793   5.139  0.4512  0.7751  1.3464
   90POPC   H5S11979   7.793   6.879   5.077 -0.7072  2.0461 -2.4522
   90POPC   C2611980   7.614   6.915   4.970  0.3519 -0.0195  0.6740
   90POPC   H6R11981   7.657   7.005   4.921  0.7608  0.5421  2.0141
   90POPC   H6S11982   7.509   6.935   4.997  0.4296 -0.5099  1.3668
   90POPC   C2711983   7.615   6.785   4.890  0.1286  0.0578  0.0928
   90POPC   H7R11984   7.587   6.690   4.942  0.0304  1.7529  3.4405
   90POPC   H7S11985   7.719   6.769   4.855 -0.7238  0.0941 -2.6642
   90POPC   C2811986   7.505   6.797   4.779 -0.1651  0.5061 -0.2039
   90POPC   H8R11987   7.421   6.859   4.817 -0.8055 -0.9684  0.8776
   90POPC   H8S11988   7.471   6.692   4.767  0.7246  0.1015  0.6867
   90POPC   C2911989   7.583   6.856   4.662 -0.0751  0.5163 -0.5477
   90POPC   H9111990   7.688   6.824   4.649  0.3365  0.2448  2.5512
   90POPC  C21011991   7.539   6.940   4.566  0.1291  0.0847  0.0900
   90POPC  H10111992   7.603   6.986   4.489 -0.1274 -1.4658 -1.0961
   90POPC  C21111993   7.407   7.001   4.571  0.2469  0.1362 -0.4165
   90POPC  H11R11994   7.414   7.112   4.576 -0.3583  0.1809 -0.4746
   90POPC  H11S11995   7.339   6.966   4.651 -1.0676  0.7545 -1.2244
   90POPC  C21211996   7.333   6.973   4.440  0.2522  1.2548  0.0538
   90POPC  H12R11997   7.284   6.873   4.450  2.7198  0.1600  2.5765
   90POPC  H12S11998   7.402   6.974   4.353  3.1452  2.2310  2.2258
   90POPC  C21311999   7.215   7.062   4.422  0.7079  0.7038  0.0404
   90POPC  H13R12000   7.252   7.162   4.391 -0.0414  1.0832  0.3470
   90POPC  H13S12001   7.155   7.086   4.513 -0.5534  2.5951 -1.2095
   90POPC  C21412002   7.122   7.008   4.311  0.0291  0.1349  0.1849
   90POPC  H14R12003   7.030   7.068   4.329 -0.4309 -1.1523  2.5454
   90POPC  H14S12004   7.103   6.899   4.326 -0.1325  0.3173  1.3860
   90POPC  C21512005   7.173   7.034   4.165  0.5824  0.4206 -0.4632
   90POPC  H15R12006   7.264   6.972   4.156  0.2016 -0.1979 -0.1185
   90POPC  H15S12007   7.218   7.132   4.138  0.2655  0.1677 -2.0374
   90POPC  C21612008   7.073   7.009   4.052 -0.1863 -0.6402 -0.3335
   90POPC  H16R12009   6.975   7.054   4.078  0.0750 -0.7778  0.9259
   90POPC  H16S12010   7.046   6.903   4.037 -3.1640 -0.3395  2.0238
   90POPC  C21712011   7.099   7.081   3.912 -0.2411  0.6624 -0.4772
   90POPC  H17R12012   7.206   7.061   3.889  0.2604  1.3665  1.1032
   90POPC  H17S12013   7.079   7.186   3.942 -0.6364 -0.1160  2.3290
   90POPC  C21812014   7.019   7.031   3.789 -0.0892 -0.5379 -0.3105
   90POPC  H18R12015   7.033   7.089   3.695  1.1576 -1.3566 -0.6403
   90POPC  H18S12016   6.911   7.037   3.815  0.1750 -0.1762  0.7420
   90POPC  H18T12017   7.049   6.926   3.771 -1.1372 -1.1417  1.2221
   90POPC   C3312018   7.514   6.547   5.389  0.1421  0.0906  0.4404
   90POPC   H3X12019   7.562   6.638   5.346 -0.9009  1.6701  2.4639
   90POPC   H3Y12020   7.409   6.582   5.397 -0.0457 -0.2635 -0.3402
   90POPC   C3412021   7.494   6.427   5.291  0.5505 -0.1938  0.6127
   90POPC   H4X12022   7.421   6.351   5.326  1.4035 -1.9940 -1.2854
   90POPC   H4Y12023   7.596   6.386   5.273 -0.1332 -0.7887 -2.5062
   90POPC   C3512024   7.447   6.475   5.155 -0.1591 -0.0669  0.7175
   90POPC   H5X12025   7.530   6.534   5.112 -0.0027 -1.5682 -1.1568
   90POPC   H5Y12026   7.362   6.544   5.178  1.5229  2.3439  0.0383
   90POPC   C3612027   7.393   6.380   5.050  0.2750 -0.4751 -0.2639
   90POPC   H6X12028   7.476   6.310   5.027 -0.3397 -1.2117 -0.2844
   90POPC   H6Y12029   7.380   6.447   4.963  4.0572  0.4658 -0.2807
   90POPC   C3712030   7.281   6.290   5.094  0.2792 -0.1283 -0.1535
   90POPC   H7X12031   7.196   6.344   5.142 -1.0316 -1.1924 -1.1774
   90POPC   H7Y12032   7.333   6.219   5.160  0.4468 -0.7431 -0.9322
   90POPC   C3812033   7.213   6.219   4.976 -0.6484 -0.2597  0.1603
   90POPC   H8X12034   7.294   6.172   4.917 -0.8428  1.0374 -1.2069
   90POPC   H8Y12035   7.175   6.287   4.896 -1.5500 -1.8726 -0.8293
   90POPC   C3912036   7.107   6.126   5.031  0.1047 -0.6375 -0.0119
   90POPC   H9X12037   7.016   6.179   5.067  1.0984  0.6726  0.6497
   90POPC   H9Y12038   7.141   6.068   5.120 -0.5362 -0.9128  0.0610
   90POPC  C31012039   7.048   6.020   4.938  0.0189  0.0789  0.2239
   90POPC  H10X12040   7.136   5.954   4.919  0.5373  0.9006 -0.3065
   90POPC  H10Y12041   7.027   6.052   4.834  2.5434  2.1920  0.2657
   90POPC  C31112042   6.934   5.936   4.990 -0.2946  0.0766  0.1731
   90POPC  H11X12043   6.930   5.845   4.926 -0.8245  0.6325 -0.5975
   90POPC  H11Y12044   6.844   5.999   4.976  1.9384  3.2859 -0.9475
   90POPC  C31212045   6.944   5.881   5.133 -0.1954  0.4904 -1.0929
   90POPC  H12X12046   6.951   5.967   5.203 -0.2493 -0.9287  0.7346
   90POPC  H12Y12047   7.039   5.824   5.148  0.8138  2.4830  0.7606
   90POPC  C31312048   6.823   5.803   5.175  0.3460 -0.2136 -0.4341
   90POPC  H13X12049   6.823   5.708   5.116  2.1224 -1.1994  1.0505
   90POPC  H13Y12050   6.726   5.854   5.158 -0.6719 -2.0936 -0.5205
   90POPC  C31412051   6.832   5.752   5.324 -0.2191  0.7551  0.0555
   90POPC  H14X12052   6.807   5.836   5.393 -1.0521 -0.4985  1.3179
   90POPC  H14Y12053   6.940   5.737   5.346 -0.0296 -0.3153 -1.4842
   90POPC  C31512054   6.759   5.627   5.360  0.1088 -0.4075  0.4231
   90POPC  H15X12055   6.800   5.576   5.449  3.0189 -0.0252 -0.6147
   90POPC  H15Y12056   6.789   5.560   5.277  1.5915  0.3717  0.3087
   90POPC  C31612057   6.600   5.640   5.358  0.0613  0.1337  0.0616
   90POPC  H16X12058   6.565   5.675   5.259 -0.8064 -0.4365  0.1549
   90POPC  H16Y12059   6.553   5.712   5.430 -1.8848 -1.4711  0.4906
   90POPC  H16Z12060   6.559   5.540   5.385 -2.7085  1.2172  0.2496
   91POPC     N12061   3.332   0.224   5.512 -1.0885  0.1261 -0.6358
   91POPC   C1212062   3.245   0.130   5.597  0.1364  0.8193  0.1636
   91POPC  H12A12063   3.151   0.121   5.545  0.5728  0.1212 -0.5223
   91POPC  H12B12064   3.212   0.182   5.686 -5.2308 -0.6324 -0.6640
   91POPC   C1312065   3.383   0.158   5.396  0.4378 -0.1108 -0.1330
   91POPC  H13A12066   3.455   0.206   5.331  0.8224 -2.9476 -1.9686
   91POPC  H13B12067   3.435   0.066   5.417 -0.5852 -0.8445 -0.7343
   91POPC  H13C12068   3.306   0.109   5.338 -0.2251 -1.7881  2.0452
   91POPC   C1412069   3.251   0.340   5.458  0.1245 -0.0964  0.3420
   91POPC  H14A12070   3.164   0.306   5.404  0.9095 -2.7058  0.5390
   91POPC  H14B12071   3.206   0.401   5.534 -1.4493 -0.6725 -0.0768
   91POPC  H14C12072   3.307   0.400   5.388 -1.3819  2.2551  1.0556
   91POPC   C1512073   3.452   0.278   5.588 -0.1679 -0.7720  0.3856
   91POPC  H15A12074   3.509   0.353   5.536 -0.3859  0.4247  1.7968
   91POPC  H15B12075   3.523   0.204   5.623 -0.5354 -0.5268  1.7075
   91POPC  H15C12076   3.424   0.338   5.674  0.1591 -0.6445  0.4063
   91POPC   C1112077   3.295  -0.018   5.625 -0.4110 -0.6983  0.3145
   91POPC  H11A12078   3.305  -0.075   5.530 -0.4088 -1.5303  0.8049
   91POPC  H11B12079   3.211  -0.073   5.673 -0.5659 -1.0287 -0.3173
   91POPC     P12080   3.553  -0.057   5.663  0.0655 -0.1729  0.3264
   91POPC   O1312081   3.579  -0.191   5.711 -0.0083 -0.0441  0.5694
   91POPC   O1412082   3.643   0.055   5.702 -0.6842 -0.7414  0.0630
   91POPC   O1212083   3.409  -0.013   5.711  0.5617  0.0728  0.0651
   91POPC   O1112084   3.549  -0.065   5.512 -0.1163  0.1108 -0.7588
   91POPC    C112085   3.672  -0.033   5.444 -0.2169 -0.6975 -0.8168
   91POPC    HA12086   3.757  -0.085   5.493 -0.7646 -2.1992 -1.4048
   91POPC    HB12087   3.675   0.078   5.436  0.2682 -0.5507  0.9810
   91POPC    C212088   3.671  -0.087   5.293  0.2307  0.2252  0.6580
   91POPC    HS12089   3.772  -0.127   5.269 -0.3649 -1.6861  1.1815
   91POPC   O2112090   3.630   0.017   5.203  0.1485 -0.4229  0.3272
   91POPC   C2112091   3.734   0.097   5.167  0.8738 -0.3706 -0.2204
   91POPC   O2212092   3.841   0.103   5.226  0.1352  0.2167  0.9197
   91POPC   C2212093   3.711   0.160   5.026 -0.2136  0.3809  0.1221
   91POPC   H2R12094   3.677   0.071   4.968  1.0194  0.2696 -0.4578
   91POPC   H2S12095   3.810   0.196   4.992  0.0534  2.8228  3.0451
   91POPC    C312096   3.574  -0.203   5.279  0.1613 -0.1682  0.3363
   91POPC    HX12097   3.475  -0.176   5.322  1.4480  2.1226  2.1048
   91POPC    HY12098   3.615  -0.273   5.355  3.2283 -0.7521 -1.6844
   91POPC   O3112099   3.581  -0.269   5.151  0.1031  0.6244 -0.1619
   91POPC   C3112100   3.491  -0.237   5.065  0.5142  0.5635 -0.3705
   91POPC   O3212101   3.405  -0.149   5.087  0.0065  0.5051 -0.4666
   91POPC   C3212102   3.504  -0.331   4.944 -0.3421 -0.1057 -0.6462
   91POPC   H2X12103   3.552  -0.428   4.969 -1.4709 -0.2551  1.1596
   91POPC   H2Y12104   3.567  -0.267   4.879 -1.2915  0.7536 -0.7517
   91POPC   C2312105   3.597   0.257   5.031 -0.1613  0.3334 -0.3225
   91POPC   H3R12106   3.632   0.341   5.095  2.4929 -0.7903 -0.1767
   91POPC   H3S12107   3.498   0.218   5.064  0.3569 -0.3233  0.4973
   91POPC   C2412108   3.594   0.339   4.896  0.1834  0.4088 -0.3250
   91POPC   H4R12109   3.503   0.404   4.899  1.6500  2.5806 -0.0305
   91POPC   H4S12110   3.585   0.268   4.811  3.9566 -0.0025 -0.5365
   91POPC   C2512111   3.717   0.422   4.864 -0.5829  0.2965  0.0241
   91POPC   H5R12112   3.805   0.355   4.863 -0.0419  0.9921 -1.1310
   91POPC   H5S12113   3.729   0.504   4.939 -1.4564 -0.9567  1.5923
   91POPC   C2612114   3.716   0.484   4.725 -0.5368 -0.1754 -0.4050
   91POPC   H6R12115   3.642   0.565   4.709  0.8709  1.1133 -0.6491
   91POPC   H6S12116   3.685   0.411   4.647  0.4261 -0.0563 -0.9227
   91POPC   C2712117   3.856   0.532   4.673 -0.7252  0.8132 -0.1777
   91POPC   H7R12118   3.919   0.574   4.755  0.7431 -1.9338  0.2543
   91POPC   H7S12119   3.838   0.611   4.597 -0.2767  0.3577 -0.7667
   91POPC   C2812120   3.947   0.424   4.611 -0.9722  0.1340 -0.4850
   91POPC   H8R12121   3.968   0.350   4.691 -0.8642  0.1960 -0.4557
   91POPC   H8S12122   4.037   0.481   4.579 -1.1818 -0.2199 -1.7808
   91POPC   C2912123   3.900   0.344   4.490 -0.3926  1.0237  0.2073
   91POPC   H9112124   3.829   0.267   4.525  0.9328  0.2553  1.3245
   91POPC  C21012125   3.917   0.370   4.358 -0.1728 -0.2515  0.5022
   91POPC  H10112126   3.871   0.300   4.286  2.5787 -2.0959  0.3740
   91POPC  C21112127   3.997   0.480   4.294 -0.5868 -0.2591  0.3550
   91POPC  H11R12128   4.093   0.445   4.251  0.3860  1.2751  1.1944
   91POPC  H11S12129   4.027   0.552   4.373  1.3007 -1.3485  0.6834
   91POPC  C21212130   3.923   0.550   4.183  0.0311 -0.2588  0.0725
   91POPC  H12R12131   3.830   0.596   4.223 -1.4301 -2.4403 -0.6311
   91POPC  H12S12132   3.887   0.486   4.100 -0.7673  1.0150 -0.5989
   91POPC  C21312133   3.998   0.669   4.127  0.6234  0.6136  0.5276
   91POPC  H13R12134   4.097   0.633   4.090  0.9574  0.1922  1.7546
   91POPC  H13S12135   4.014   0.746   4.206  0.3489  0.6399  0.5579
   91POPC  C21412136   3.930   0.735   4.002  0.3654 -0.0988  0.2276
   91POPC  H14R12137   3.825   0.755   4.032 -0.3431  0.9013 -2.6271
   91POPC  H14S12138   3.937   0.660   3.921  0.5804 -0.2688  0.4020
   91POPC  C21512139   3.982   0.867   3.950 -0.2099 -0.4516 -0.8403
   91POPC  H15R12140   3.929   0.950   4.001 -0.5057 -0.1914 -1.5519
   91POPC  H15S12141   3.949   0.876   3.844  0.5149  0.8127 -0.9788
   91POPC  C21612142   4.123   0.894   3.978 -0.0832 -0.7286  0.1355
   91POPC  H16R12143   4.189   0.821   3.926 -1.3036  0.0795 -2.7923
   91POPC  H16S12144   4.156   0.910   4.083  0.4579  0.7157 -0.2192
   91POPC  C21712145   4.155   1.033   3.920  0.1748 -0.1466 -0.3423
   91POPC  H17R12146   4.262   1.044   3.948  0.5933 -0.7867 -1.5995
   91POPC  H17S12147   4.087   1.109   3.967 -0.5643 -1.4312  0.7293
   91POPC  C21812148   4.134   1.035   3.766 -0.1520  0.5740 -0.5225
   91POPC  H18R12149   4.165   0.937   3.722  1.0396  0.5894  0.2183
   91POPC  H18S12150   4.192   1.120   3.726 -0.6509  0.4476 -1.5333
   91POPC  H18T12151   4.027   1.059   3.753 -0.7024  0.2073  2.6020
   91POPC   C3312152   3.369  -0.358   4.871 -0.5324  0.0287 -0.1575
   91POPC   H3X12153   3.320  -0.268   4.828  0.9654  0.7053 -0.5272
   91POPC   H3Y12154   3.301  -0.401   4.948  0.1405  2.0321  1.6544
   91POPC   C3412155   3.385  -0.449   4.751  0.6199 -0.1841 -0.2219
   91POPC   H4X12156   3.287  -0.470   4.704  1.1163 -1.3145 -0.8212
   91POPC   H4Y12157   3.444  -0.543   4.764  2.3294  0.8995  0.1039
   91POPC   C3512158   3.465  -0.383   4.642 -0.0878 -0.2480 -0.0981
   91POPC   H5X12159   3.564  -0.338   4.664 -0.0118  1.9770 -4.0503
   91POPC   H5Y12160   3.399  -0.303   4.602 -2.5461 -0.8921  2.3285
   91POPC   C3612161   3.487  -0.477   4.522 -0.5410  0.6636  0.2895
   91POPC   H6X12162   3.392  -0.522   4.484  1.0546 -0.5920 -2.5334
   91POPC   H6Y12163   3.556  -0.559   4.552 -1.2779 -0.5860 -1.2261
   91POPC   C3712164   3.544  -0.402   4.403 -1.0301  0.9157 -0.4988
   91POPC   H7X12165   3.590  -0.480   4.338 -2.9523 -1.5946  0.9999
   91POPC   H7Y12166   3.626  -0.336   4.441  0.4179 -1.3617  0.5599
   91POPC   C3812167   3.446  -0.320   4.323 -0.2720  0.1122  0.6075
   91POPC   H8X12168   3.367  -0.270   4.382 -1.6756 -0.0371 -1.0532
   91POPC   H8Y12169   3.387  -0.392   4.263 -0.6031  0.1143  0.9296
   91POPC   C3912170   3.508  -0.223   4.232  0.4985  0.2391 -0.1381
   91POPC   H9X12171   3.574  -0.159   4.294 -1.0688 -0.8821  2.8604
   91POPC   H9Y12172   3.421  -0.167   4.193 -0.3288 -1.2450 -0.5051
   91POPC  C31012173   3.585  -0.288   4.120 -0.0023 -0.0315 -0.8705
   91POPC  H10X12174   3.517  -0.341   4.049  0.1550 -1.1769 -0.1964
   91POPC  H10Y12175   3.654  -0.364   4.163 -1.1196  0.1559  1.3623
   91POPC  C31112176   3.659  -0.187   4.036 -1.0338 -0.2274  0.3331
   91POPC  H11X12177   3.740  -0.127   4.083 -1.1401  1.7313 -1.7861
   91POPC  H11Y12178   3.588  -0.112   3.996 -1.4716 -1.3239 -1.0391
   91POPC  C31212179   3.715  -0.259   3.913  1.0148 -0.1010 -0.5533
   91POPC  H12X12180   3.636  -0.273   3.836  1.0239  1.2032 -0.8213
   91POPC  H12Y12181   3.764  -0.353   3.946 -1.9516 -2.3198 -1.9681
   91POPC  C31312182   3.815  -0.175   3.838 -0.0761  0.1911 -0.2485
   91POPC  H13X12183   3.886  -0.134   3.912  0.0652 -0.4660 -0.0098
   91POPC  H13Y12184   3.759  -0.087   3.800  0.3756  0.0656 -1.2359
   91POPC  C31412185   3.899  -0.252   3.737 -0.5073 -0.0175  0.0531
   91POPC  H14X12186   3.932  -0.344   3.790  1.5366  0.9421  0.5241
   91POPC  H14Y12187   3.992  -0.201   3.705 -0.7745  0.7238  0.4322
   91POPC  C31512188   3.827  -0.289   3.609  0.7952  0.6800 -0.6531
   91POPC  H15X12189   3.751  -0.369   3.625 -1.1227  2.3002 -1.2815
   91POPC  H15Y12190   3.901  -0.346   3.548 -1.2797 -1.7364 -1.1111
   91POPC  C31612191   3.759  -0.187   3.527 -0.4907 -0.3501  1.2076
   91POPC  H16X12192   3.699  -0.130   3.601 -0.9203  1.2073 -0.2798
   91POPC  H16Y12193   3.690  -0.240   3.459 -0.5299  0.3687  0.6698
   91POPC  H16Z12194   3.835  -0.134   3.465  0.5845 -1.6996  1.3137
   92POPC     N12195   6.067   8.030   5.922 -0.1414  0.1140  0.2806
   92POPC   C1212196   5.972   8.016   5.794  0.4149  0.5835 -0.6058
   92POPC  H12A12197   5.883   7.957   5.816 -0.9670  2.2664 -1.4765
   92POPC  H12B12198   6.027   7.969   5.714 -0.5919 -0.8513 -0.5043
   92POPC   C1312199   6.186   8.112   5.896 -0.1027 -0.4907 -0.3180
   92POPC  H13A12200   6.162   8.216   5.880  1.6896  0.1760  1.0189
   92POPC  H13B12201   6.252   8.107   5.981  2.6417  0.5816 -2.2437
   92POPC  H13C12202   6.247   8.074   5.815  0.0791 -0.5204 -0.1677
   92POPC   C1412203   5.992   8.084   6.041 -0.0774 -0.4878 -0.2294
   92POPC  H14A12204   5.917   8.017   6.078 -1.0152 -0.5433 -2.0863
   92POPC  H14B12205   6.057   8.105   6.125 -1.6464 -0.3647  0.9956
   92POPC  H14C12206   5.947   8.178   6.011  2.9074  1.2007  0.1667
   92POPC   C1512207   6.104   7.892   5.967 -0.1565  0.6144  0.1487
   92POPC  H15A12208   6.197   7.894   6.021 -0.2887  0.7868  0.3772
   92POPC  H15B12209   6.120   7.832   5.879 -1.4445 -0.2896  0.4881
   92POPC  H15C12210   6.017   7.850   6.017  0.3020 -0.0957  0.3568
   92POPC   C1112211   5.916   8.147   5.738  0.9431  0.3145  0.7468
   92POPC  H11A12212   5.873   8.142   5.636 -2.2864  0.4388  1.9795
   92POPC  H11B12213   6.004   8.215   5.731 -0.0386  1.6594  1.0377
   92POPC     P12214   5.683   8.144   5.857  0.3156 -0.0929  0.1358
   92POPC   O1312215   5.605   8.248   5.931  0.1079 -0.6001  0.5888
   92POPC   O1412216   5.690   8.014   5.925  0.2817  0.3724  0.0536
   92POPC   O1212217   5.826   8.206   5.831 -0.7315 -0.1990  0.2979
   92POPC   O1112218   5.612   8.129   5.715  0.1874 -1.2273  0.0509
   92POPC    C112219   5.603   8.241   5.629  0.3390  0.1364  0.1147
   92POPC    HA12220   5.633   8.205   5.529 -0.9620  3.7458 -1.7595
   92POPC    HB12221   5.663   8.331   5.656 -0.9234  0.9700  0.1984
   92POPC    C212222   5.460   8.288   5.626 -0.6389 -0.1718 -0.2094
   92POPC    HS12223   5.416   8.315   5.724 -0.7670 -2.6064  0.4511
   92POPC   O2112224   5.375   8.187   5.562 -0.2481 -0.3660 -0.4501
   92POPC   C2112225   5.240   8.185   5.596  0.0188  0.4674 -0.1625
   92POPC   O2212226   5.187   8.262   5.678  1.2541 -0.1560  0.2012
   92POPC   C2212227   5.170   8.071   5.528 -0.1340  0.3803 -0.4161
   92POPC   H2R12228   5.193   7.979   5.587  0.1149 -0.0173 -1.1144
   92POPC   H2S12229   5.226   8.051   5.434 -0.5764  0.7931 -0.7738
   92POPC    C312230   5.453   8.426   5.540  0.2308  0.7706  0.0024
   92POPC    HX12231   5.497   8.505   5.604 -1.0303  1.0134  0.5929
   92POPC    HY12232   5.343   8.436   5.537  0.4148  2.8350 -1.0363
   92POPC   O3112233   5.520   8.405   5.415  0.2338  0.1569  0.3180
   92POPC   C3112234   5.430   8.388   5.313  0.6595 -0.8010  1.5643
   92POPC   O3212235   5.310   8.378   5.320  0.3373  0.3563 -0.0197
   92POPC   C3212236   5.504   8.405   5.180 -0.7559  0.7356 -0.2331
   92POPC   H2X12237   5.554   8.307   5.165 -1.0643 -0.3546  4.3705
   92POPC   H2Y12238   5.573   8.490   5.197  0.4830 -0.3807  0.5131
   92POPC   C2312239   5.014   8.088   5.506  0.1264 -0.8546 -0.2183
   92POPC   H3R12240   4.961   8.123   5.597  1.1482 -3.9322  1.7023
   92POPC   H3S12241   4.966   7.988   5.502 -0.8358 -0.5384  2.0376
   92POPC   C2412242   4.975   8.166   5.382 -0.7322  0.1882  1.1089
   92POPC   H4R12243   5.017   8.268   5.367 -1.9856  0.2804 -2.9965
   92POPC   H4S12244   4.865   8.170   5.390 -0.5649  2.0832  3.4489
   92POPC   C2512245   5.004   8.086   5.253  0.3638 -0.9199  0.0572
   92POPC   H5R12246   4.951   7.989   5.253  0.6599 -1.1646  2.4990
   92POPC   H5S12247   5.112   8.072   5.233 -0.2102 -2.3339 -2.3628
   92POPC   C2612248   4.963   8.172   5.132  0.0716 -0.0720  0.3145
   92POPC   H6R12249   4.862   8.213   5.157  1.2522  1.6908  2.6933
   92POPC   H6S12250   4.950   8.105   5.045  1.0759 -2.0890  1.6500
   92POPC   C2712251   5.059   8.288   5.101  0.0607 -0.5106  0.0279
   92POPC   H7R12252   5.159   8.242   5.112 -0.7612 -2.0242  1.8126
   92POPC   H7S12253   5.050   8.373   5.173 -1.3047  2.5263 -3.4052
   92POPC   C2812254   5.050   8.352   4.961 -0.3687  0.2630  0.2671
   92POPC   H8R12255   5.072   8.281   4.879 -1.3591 -0.1405  0.3363
   92POPC   H8S12256   5.128   8.432   4.956  0.8320 -0.9400 -0.9278
   92POPC   C2912257   4.916   8.414   4.929  0.1230 -0.1084 -0.3440
   92POPC   H9112258   4.857   8.435   5.020  3.0115  1.9279  1.2575
   92POPC  C21012259   4.860   8.427   4.810 -0.1037  0.1102  0.4124
   92POPC  H10112260   4.765   8.482   4.819  1.0893  1.9389  3.2736
   92POPC  C21112261   4.914   8.388   4.677  0.0039  1.1015  0.0144
   92POPC  H11R12262   4.834   8.341   4.616  0.6874  0.6580 -0.5570
   92POPC  H11S12263   4.988   8.306   4.689 -3.0424 -1.8846 -0.0844
   92POPC  C21212264   4.947   8.502   4.591 -0.4533 -0.1042  0.2101
   92POPC  H12R12265   5.050   8.535   4.615 -1.1742  2.4401  0.0601
   92POPC  H12S12266   4.879   8.588   4.608 -0.7065  0.0267 -1.3542
   92POPC  C21312267   4.926   8.474   4.441 -0.8271  0.6999 -0.0077
   92POPC  H13R12268   4.955   8.566   4.386  1.2281 -1.2734 -2.5132
   92POPC  H13S12269   4.824   8.437   4.416 -0.9268 -0.0108  1.4077
   92POPC  C21412270   5.026   8.364   4.386  0.7595  0.2160  0.1537
   92POPC  H14R12271   5.012   8.263   4.432 -0.4223  0.4716  0.3835
   92POPC  H14S12272   5.122   8.411   4.417  0.8486 -0.6555  1.2831
   92POPC  C21512273   5.020   8.331   4.237  0.1496 -0.3524  0.3652
   92POPC  H15R12274   5.031   8.421   4.172 -1.6704 -1.1962 -1.2261
   92POPC  H15S12275   4.920   8.290   4.212  0.2678 -0.9897  0.9204
   92POPC  C21612276   5.136   8.228   4.192  0.4959 -0.2326 -0.9837
   92POPC  H16R12277   5.115   8.137   4.253  1.2129  1.6600  2.3367
   92POPC  H16S12278   5.224   8.278   4.238  1.3941 -0.9302 -1.9077
   92POPC  C21712279   5.150   8.206   4.043 -0.0807  0.0582  0.1737
   92POPC  H17R12280   5.249   8.156   4.032  0.0824  0.6605 -1.1836
   92POPC  H17S12281   5.151   8.300   3.984  0.4399  0.1405  0.3029
   92POPC  C21812282   5.036   8.125   3.981 -0.3318  0.9794 -0.3751
   92POPC  H18R12283   5.021   8.024   4.025  3.9456  0.1531 -0.3719
   92POPC  H18S12284   4.940   8.179   3.995 -1.8336 -1.5269 -0.2954
   92POPC  H18T12285   5.053   8.102   3.873 -0.8391  0.9856 -0.4617
   92POPC   C3312286   5.410   8.422   5.054 -0.1164 -0.1741 -1.0979
   92POPC   H3X12287   5.349   8.512   5.079 -0.7537 -1.1971  1.3210
   92POPC   H3Y12288   5.357   8.325   5.055  2.5192 -1.7008 -0.7937
   92POPC   C3412289   5.489   8.447   4.928 -0.6590  0.2547  0.7900
   92POPC   H4X12290   5.552   8.360   4.901 -1.0143  0.0284  0.6833
   92POPC   H4Y12291   5.557   8.531   4.955  0.2174 -0.4594  0.8655
   92POPC   C3512292   5.400   8.477   4.812 -0.2269  0.0324  0.2419
   92POPC   H5X12293   5.341   8.566   4.844 -1.8253 -0.7043 -0.5318
   92POPC   H5Y12294   5.334   8.393   4.782  0.0630  0.7667 -2.7279
   92POPC   C3612295   5.481   8.515   4.683 -0.4264  0.4772 -0.6164
   92POPC   H6X12296   5.532   8.424   4.646  0.7580  0.4602  0.9135
   92POPC   H6Y12297   5.556   8.596   4.697  0.6069 -0.7028  1.1036
   92POPC   C3712298   5.379   8.576   4.582  0.1656  0.5620  0.0153
   92POPC   H7X12299   5.352   8.679   4.615  0.4104  1.1804 -1.6402
   92POPC   H7Y12300   5.290   8.510   4.592  1.2107 -0.7889  0.7236
   92POPC   C3812301   5.410   8.574   4.437 -0.2814 -0.1286 -0.2123
   92POPC   H8X12302   5.323   8.606   4.374 -0.2613  1.8119  0.6779
   92POPC   H8Y12303   5.426   8.469   4.403 -1.1969 -0.6122  0.7945
   92POPC   C3912304   5.525   8.668   4.397 -0.1221  0.1558 -0.5151
   92POPC   H9X12305   5.625   8.624   4.416  0.6481  1.7773 -0.6304
   92POPC   H9Y12306   5.523   8.763   4.454 -0.2267 -0.9026  1.3016
   92POPC  C31012307   5.541   8.718   4.253  0.5792 -0.1752  0.2207
   92POPC  H10X12308   5.460   8.791   4.233  0.5946  0.2696  1.6678
   92POPC  H10Y12309   5.545   8.632   4.182 -0.2073  0.2151 -0.3118
   92POPC  C31112310   5.670   8.798   4.229  0.0776 -0.0121 -0.0632
   92POPC  H11X12311   5.751   8.731   4.266 -1.2518 -2.5026 -1.3641
   92POPC  H11Y12312   5.678   8.879   4.304 -0.4453 -1.1617  1.2698
   92POPC  C31212313   5.689   8.836   4.084 -0.6221  0.9231 -0.1398
   92POPC  H12X12314   5.615   8.912   4.051 -1.5223  1.6690  3.2769
   92POPC  H12Y12315   5.677   8.746   4.020 -0.5934  0.0653  1.0279
   92POPC  C31312316   5.830   8.904   4.063  0.3048 -0.1778  0.5557
   92POPC  H13X12317   5.905   8.851   4.125 -0.6545 -0.5120  1.4586
   92POPC  H13Y12318   5.825   9.009   4.097 -0.3032  0.5197 -1.5123
   92POPC  C31412319   5.877   8.915   3.911 -0.0877  1.1113 -0.3925
   92POPC  H14X12320   5.885   8.814   3.865  0.4516  1.2466 -0.5951
   92POPC  H14Y12321   5.971   8.973   3.912 -0.3155  1.5050 -1.1013
   92POPC  C31512322   5.774   9.000   3.833 -0.0691 -0.8782 -0.0343
   92POPC  H15X12323   5.771   9.104   3.871  2.4836 -0.2822 -1.2623
   92POPC  H15Y12324   5.674   8.953   3.848 -0.4823  0.0727  0.2795
   92POPC  C31612325   5.805   8.998   3.682 -0.6155 -0.2740  0.5234
   92POPC  H16X12326   5.828   8.894   3.651  0.5409  0.2546 -0.4891
   92POPC  H16Y12327   5.898   9.058   3.671 -1.1107  0.0843 -2.5720
   92POPC  H16Z12328   5.729   9.045   3.617  1.7072  3.1170 -0.0050
   93POPC     N12329   7.250   0.286   5.448 -0.5080  0.4370 -0.1307
   93POPC   C1212330   7.107   0.244   5.420  0.7087 -0.1930 -0.1781
   93POPC  H12A12331   7.071   0.284   5.327 -1.0616 -3.2088 -0.9123
   93POPC  H12B12332   7.046   0.290   5.496  0.8933 -0.2326 -0.0028
   93POPC   C1312333   7.345   0.223   5.346  0.4139 -0.0580 -0.1015
   93POPC  H13A12334   7.447   0.256   5.356 -0.1210  1.4312  0.6680
   93POPC  H13B12335   7.346   0.115   5.353  0.6795 -0.0911 -0.5938
   93POPC  H13C12336   7.305   0.245   5.248  0.7551  0.0000 -0.2267
   93POPC   C1412337   7.260   0.434   5.446  0.2707  0.8952 -0.3038
   93POPC  H14A12338   7.201   0.477   5.526  0.8928 -0.6468  1.0515
   93POPC  H14B12339   7.359   0.477   5.454 -0.1565  2.5134 -2.7087
   93POPC  H14C12340   7.230   0.476   5.351  0.8081  0.3844 -0.7092
   93POPC   C1512341   7.293   0.239   5.588  0.0590 -0.0843  0.0597
   93POPC  H15A12342   7.251   0.299   5.668  2.3582  0.4594  0.9433
   93POPC  H15B12343   7.400   0.250   5.596  0.2056 -0.8021 -0.7406
   93POPC  H15C12344   7.282   0.132   5.597 -0.9757 -0.0255 -0.4363
   93POPC   C1112345   7.077   0.094   5.413 -0.0320  0.6388  1.2256
   93POPC  H11A12346   7.144   0.041   5.342 -2.2042 -0.4103 -0.1412
   93POPC  H11B12347   6.974   0.087   5.374  0.5127 -0.7272 -0.0584
   93POPC     P12348   6.963   0.061   5.651  0.4740 -0.0508  0.7578
   93POPC   O1312349   6.962   0.208   5.675  0.1202  0.0607 -0.2853
   93POPC   O1412350   6.971  -0.026   5.768 -0.7517 -0.2189  0.3278
   93POPC   O1212351   7.076   0.029   5.534  0.2112 -0.0292  0.3272
   93POPC   O1112352   6.826   0.028   5.573  0.1986  0.2741 -0.1658
   93POPC    C112353   6.796  -0.097   5.514  0.0617  0.5475  0.3330
   93POPC    HA12354   6.751  -0.161   5.593 -0.8245 -0.8133 -1.2162
   93POPC    HB12355   6.881  -0.161   5.483  0.2654  1.7996 -1.8907
   93POPC    C212356   6.692  -0.074   5.399 -0.3276  0.0722  0.5188
   93POPC    HS12357   6.634  -0.168   5.391  0.3817 -0.2802 -0.7761
   93POPC   O2112358   6.767  -0.051   5.278 -0.3550 -0.4892 -0.3329
   93POPC   C2112359   6.822  -0.155   5.218  0.6198  0.3867 -0.4169
   93POPC   O2212360   6.800  -0.270   5.250 -0.6292  0.2795 -0.0135
   93POPC   C2212361   6.916  -0.105   5.107  0.0246  0.1754 -0.3131
   93POPC   H2R12362   7.000  -0.069   5.170 -0.7824  1.7116 -0.0687
   93POPC   H2S12363   6.861  -0.021   5.060 -1.6586 -1.0169 -0.5450
   93POPC    C312364   6.605   0.047   5.419  0.2046  0.5409 -0.3047
   93POPC    HX12365   6.669   0.135   5.398  0.7520 -0.2688 -2.3299
   93POPC    HY12366   6.573   0.049   5.525 -1.7957 -1.7114 -0.7678
   93POPC   O3112367   6.484   0.036   5.336 -0.3232 -0.3409  0.3229
   93POPC   C3112368   6.371  -0.004   5.390 -0.2303 -1.5902 -0.5579
   93POPC   O3212369   6.355  -0.036   5.506 -0.7655  0.3896  0.7623
   93POPC   C3212370   6.265  -0.022   5.280  0.3773  0.5108  0.9006
   93POPC   H2X12371   6.308  -0.001   5.180 -3.3685 -1.1245 -1.2547
   93POPC   H2Y12372   6.171   0.032   5.303 -0.6884 -1.3420  1.0865
   93POPC   C2312373   6.963  -0.217   5.010  0.6115 -0.8425 -0.0588
   93POPC   H3R12374   6.871  -0.242   4.953 -0.3902  1.3952  0.4823
   93POPC   H3S12375   6.988  -0.315   5.056  1.9168 -0.8457 -0.7220
   93POPC   C2412376   7.081  -0.175   4.924  0.6927  0.7277  0.0316
   93POPC   H4R12377   7.056  -0.070   4.895 -3.1433  0.0201  0.2454
   93POPC   H4S12378   7.080  -0.220   4.823 -0.4215  0.2724  0.2373
   93POPC   C2512379   7.219  -0.186   4.987  0.6628 -0.1651 -0.1170
   93POPC   H5R12380   7.229  -0.289   5.028 -1.6640  0.3904  2.0867
   93POPC   H5S12381   7.233  -0.115   5.071  2.0233  0.3445 -0.7458
   93POPC   C2612382   7.334  -0.154   4.885 -1.0459 -0.0538 -0.7762
   93POPC   H6R12383   7.310  -0.059   4.832  0.2511  0.8296  0.1493
   93POPC   H6S12384   7.327  -0.235   4.809 -1.3153 -0.1938 -0.6025
   93POPC   C2712385   7.477  -0.160   4.946 -0.0768  0.1985 -0.4028
   93POPC   H7R12386   7.493  -0.260   4.992  2.0951 -0.7230 -2.9139
   93POPC   H7S12387   7.474  -0.087   5.030 -1.5936  1.3028 -1.3856
   93POPC   C2812388   7.585  -0.137   4.842  0.0994 -0.1020  0.8446
   93POPC   H8R12389   7.671  -0.101   4.901  0.7363  0.0315 -0.1353
   93POPC   H8S12390   7.559  -0.048   4.781  1.2183  0.6040  1.3908
   93POPC   C2912391   7.617  -0.255   4.754  0.4268 -0.2515 -0.9191
   93POPC   H9112392   7.696  -0.324   4.787  0.3364  0.4444  0.8234
   93POPC  C21012393   7.579  -0.278   4.623  0.4919 -0.0982  0.3235
   93POPC  H10112394   7.620  -0.363   4.567 -2.2060 -0.8486 -0.6474
   93POPC  C21112395   7.497  -0.173   4.553 -0.0749 -0.9044  0.4637
   93POPC  H11R12396   7.563  -0.097   4.505 -1.5774  1.0288  1.2923
   93POPC  H11S12397   7.429  -0.128   4.629 -0.4199 -3.2110  1.5901
   93POPC  C21212398   7.399  -0.227   4.444  0.0356 -0.5946 -0.5900
   93POPC  H12R12399   7.335  -0.304   4.491  1.1349 -0.6779  0.8289
   93POPC  H12S12400   7.455  -0.290   4.371 -0.6595 -1.5555 -0.3074
   93POPC  C21312401   7.325  -0.103   4.388 -0.5528 -0.3244  0.2585
   93POPC  H13R12402   7.407  -0.043   4.343  1.5894 -1.2025  2.7071
   93POPC  H13S12403   7.283  -0.039   4.468 -2.2238 -2.6075  1.3443
   93POPC  C21412404   7.221  -0.134   4.278  0.8003 -0.2839  0.1927
   93POPC  H14R12405   7.282  -0.185   4.201  0.9103  0.6178 -0.3296
   93POPC  H14S12406   7.177  -0.045   4.229 -0.6955 -0.9545  0.2829
   93POPC  C21512407   7.102  -0.219   4.316  0.0291 -0.0269 -0.6611
   93POPC  H15R12408   7.145  -0.316   4.350 -1.3927 -0.1809  0.8107
   93POPC  H15S12409   7.045  -0.229   4.222  0.8616  1.1672 -1.3195
   93POPC  C21612410   7.008  -0.163   4.425 -0.3625  0.0676  0.3606
   93POPC  H16R12411   6.985  -0.055   4.411 -1.4181 -0.1162  0.6093
   93POPC  H16S12412   7.060  -0.177   4.522  1.9057  0.7370 -0.6749
   93POPC  C21712413   6.877  -0.246   4.445 -0.0899 -0.0130 -0.3173
   93POPC  H17R12414   6.894  -0.352   4.473 -2.0821 -0.8121 -1.9004
   93POPC  H17S12415   6.817  -0.239   4.352 -0.2715 -2.5367 -0.4547
   93POPC  C21812416   6.788  -0.178   4.554  0.6374  0.0164  0.0714
   93POPC  H18R12417   6.757  -0.072   4.541  1.6451  0.0429 -2.9612
   93POPC  H18S12418   6.849  -0.179   4.647 -0.3491 -0.8816  0.7365
   93POPC  H18T12419   6.692  -0.230   4.572  0.0922  0.4793 -1.3856
   93POPC   C3312420   6.210  -0.171   5.273  1.0179  0.1017 -0.4489
   93POPC   H3X12421   6.174  -0.193   5.376  1.1705 -1.7497 -0.7575
   93POPC   H3Y12422   6.299  -0.235   5.255  1.0003 -0.9751  2.6379
   93POPC   C3412423   6.107  -0.192   5.167 -0.4127  0.1175  0.1968
   93POPC   H4X12424   6.147  -0.176   5.064 -1.2693  2.6210  0.1889
   93POPC   H4Y12425   6.022  -0.122   5.184 -0.8745 -0.4275  0.1487
   93POPC   C3512426   6.044  -0.326   5.160  0.2666 -0.3867 -0.1566
   93POPC   H5X12427   5.980  -0.338   5.250 -0.5596  0.1854 -0.6514
   93POPC   H5Y12428   6.115  -0.411   5.158  1.9112  0.8554  1.5754
   93POPC   C3612429   5.956  -0.325   5.031  0.2148 -0.5865 -0.2098
   93POPC   H6X12430   6.019  -0.327   4.940  1.3831 -1.0339  0.5948
   93POPC   H6Y12431   5.893  -0.233   5.027 -0.9185 -1.3115  0.4044
   93POPC   C3712432   5.859  -0.445   5.032 -0.1375 -0.5206 -0.2655
   93POPC   H7X12433   5.776  -0.447   5.106 -1.0306 -1.4127 -1.2655
   93POPC   H7Y12434   5.910  -0.541   5.053  0.0979 -0.1785  0.7784
   93POPC   C3812435   5.788  -0.458   4.890  0.1774 -0.1044 -0.2304
   93POPC   H8X12436   5.746  -0.360   4.858 -0.6574 -0.7557 -1.2369
   93POPC   H8Y12437   5.704  -0.528   4.909 -0.4826  0.8069  0.2623
   93POPC   C3912438   5.883  -0.500   4.773 -0.5142  0.5028  0.4415
   93POPC   H9X12439   5.926  -0.589   4.822  0.9217  0.5962 -0.5941
   93POPC   H9Y12440   5.966  -0.429   4.753 -0.9988  1.3298  1.3034
   93POPC  C31012441   5.808  -0.535   4.641  0.2606 -0.1218 -0.3579
   93POPC  H10X12442   5.712  -0.587   4.662 -0.0717  0.6114 -0.0271
   93POPC  H10Y12443   5.864  -0.606   4.576  0.3221 -0.8769  0.4938
   93POPC  C31112444   5.765  -0.413   4.550 -0.0447  1.0603  0.2183
   93POPC  H11X12445   5.855  -0.348   4.563  1.3379 -1.0302  1.9092
   93POPC  H11Y12446   5.663  -0.379   4.577 -0.5595  0.2153 -0.6520
   93POPC  C31212447   5.758  -0.459   4.398 -0.2662 -0.4173 -0.5075
   93POPC  H12X12448   5.699  -0.553   4.386 -0.1507 -0.4576 -0.7651
   93POPC  H12Y12449   5.859  -0.499   4.372  0.2458  1.4323 -1.5222
   93POPC  C31312450   5.719  -0.342   4.295  0.2381 -0.1308 -0.4396
   93POPC  H13X12451   5.770  -0.247   4.322 -0.9929  1.3658 -2.9882
   93POPC  H13Y12452   5.613  -0.308   4.293  1.1543  3.3361  1.4685
   93POPC  C31412453   5.761  -0.352   4.144 -0.1568  0.4886  0.3391
   93POPC  H14X12454   5.872  -0.352   4.138 -0.2037  0.4336 -0.6524
   93POPC  H14Y12455   5.730  -0.267   4.081 -1.4839 -0.6742 -0.6331
   93POPC  C31512456   5.700  -0.483   4.090 -0.1118  0.2550  0.6326
   93POPC  H15X12457   5.594  -0.499   4.121 -0.8321  1.9668 -0.7727
   93POPC  H15Y12458   5.767  -0.565   4.124  1.5635  0.7007 -1.4348
   93POPC  C31612459   5.701  -0.493   3.939  0.0687 -0.3373 -0.2958
   93POPC  H16X12460   5.683  -0.599   3.915  1.2357 -0.5073 -0.4675
   93POPC  H16Y12461   5.802  -0.458   3.911  0.1342 -0.5747 -0.3553
   93POPC  H16Z12462   5.622  -0.434   3.887  1.1428  2.2295  0.7985
   94POPC     N12463   0.523   0.423   5.889 -0.5381  0.0613  0.9898
   94POPC   C1212464   0.640   0.325   5.854  0.1795  0.1384 -0.5177
   94POPC  H12A12465   0.701   0.376   5.780  0.9566  1.7028  1.1278
   94POPC  H12B12466   0.608   0.237   5.802  2.0432 -0.7081 -0.3256
   94POPC   C1312467   0.571   0.553   5.959  0.1262  0.3835 -0.0274
   94POPC  H13A12468   0.626   0.526   6.048 -0.4759 -0.3837  0.1222
   94POPC  H13B12469   0.635   0.620   5.904 -2.0413  0.2086 -3.0029
   94POPC  H13C12470   0.486   0.611   5.994 -1.7704 -0.9714 -2.1033
   94POPC   C1412471   0.453   0.445   5.758 -0.2789  0.7175 -0.1596
   94POPC  H14A12472   0.397   0.354   5.744  0.4543 -0.2459  2.5066
   94POPC  H14B12473   0.376   0.521   5.765  0.8735  1.8622  0.5395
   94POPC  H14C12474   0.504   0.478   5.670  0.7486 -1.4110 -0.4051
   94POPC   C1512475   0.434   0.355   5.980  0.5059 -0.3256 -0.1408
   94POPC  H15A12476   0.350   0.421   5.999  2.2088  1.9535 -0.1295
   94POPC  H15B12477   0.487   0.342   6.073  0.4943 -0.5350 -0.1642
   94POPC  H15C12478   0.395   0.260   5.947 -1.9340 -0.0086  1.4995
   94POPC   C1112479   0.726   0.279   5.968 -0.1721  0.6092  0.5667
   94POPC  H11A12480   0.800   0.217   5.912  1.8425  2.1578  1.4193
   94POPC  H11B12481   0.670   0.222   6.045 -0.6514 -0.9589 -0.8777
   94POPC     P12482   0.943   0.435   5.979  0.0535  0.3554  0.2279
   94POPC   O1312483   1.032   0.315   5.960  0.1415  0.0650  0.2515
   94POPC   O1412484   0.979   0.534   6.086  0.2470 -0.5160  0.0298
   94POPC   O1212485   0.796   0.387   6.022  0.2285  0.0667  0.2671
   94POPC   O1112486   0.914   0.502   5.842  0.0912 -0.6980 -0.3977
   94POPC    C112487   0.896   0.644   5.825  1.0197 -0.0410 -0.7745
   94POPC    HA12488   0.902   0.702   5.919 -0.3935 -0.3540 -0.4693
   94POPC    HB12489   0.793   0.668   5.790  1.1618  1.5939 -0.1331
   94POPC    C212490   0.997   0.701   5.728 -0.1905 -0.0400  0.1578
   94POPC    HS12491   0.981   0.811   5.724 -0.6157 -0.1467 -1.5290
   94POPC   O2112492   0.991   0.647   5.593 -0.2871  0.7432 -0.6722
   94POPC   C2112493   0.886   0.685   5.526  0.4192 -0.0153 -0.2349
   94POPC   O2212494   0.802   0.769   5.565 -0.2275  0.0684 -0.2331
   94POPC   C2212495   0.880   0.619   5.387  0.4115 -0.0291 -0.0178
   94POPC   H2R12496   0.783   0.572   5.360 -0.0071  0.4737  0.5839
   94POPC   H2S12497   0.956   0.537   5.387 -0.0066 -0.4254 -0.9474
   94POPC    C312498   1.137   0.669   5.781 -0.6492  0.3924 -1.0283
   94POPC    HX12499   1.154   0.560   5.776 -0.4302  0.4592 -1.8727
   94POPC    HY12500   1.141   0.701   5.887  0.7516  0.1443 -0.9884
   94POPC   O3112501   1.235   0.732   5.703 -0.2793  0.4728  0.4123
   94POPC   C3112502   1.251   0.865   5.723 -0.0182 -0.1263 -0.3697
   94POPC   O3212503   1.187   0.931   5.803  0.1479  0.5099  0.0891
   94POPC   C3212504   1.365   0.912   5.643  0.3413 -0.2821 -0.8903
   94POPC   H2X12505   1.454   0.845   5.638  1.1497  0.5655  1.0974
   94POPC   H2Y12506   1.399   0.990   5.714 -1.4006 -1.4349  1.3105
   94POPC   C2312507   0.914   0.724   5.283 -0.2956 -0.1514  0.2655
   94POPC   H3R12508   1.010   0.778   5.299 -0.0272 -0.3414 -0.6258
   94POPC   H3S12509   0.828   0.793   5.267 -1.3009 -0.8529  2.3131
   94POPC   C2412510   0.941   0.659   5.140  0.1388 -1.0186  0.1041
   94POPC   H4R12511   0.845   0.623   5.098 -0.0134 -2.2775  1.4481
   94POPC   H4S12512   1.004   0.570   5.158  1.2213 -0.5828 -1.3418
   94POPC   C2512513   1.012   0.761   5.049 -0.8583  0.4070 -0.6691
   94POPC   H5R12514   1.108   0.791   5.098 -0.8005  2.7706 -2.0811
   94POPC   H5S12515   0.950   0.853   5.048 -0.3225  0.8394  1.0130
   94POPC   C2612516   1.052   0.716   4.907 -0.2026  0.6854  0.5307
   94POPC   H6R12517   1.130   0.638   4.921 -2.3410 -1.1655  3.3809
   94POPC   H6S12518   1.089   0.798   4.841 -0.8017  0.5031 -0.0382
   94POPC   C2712519   0.943   0.636   4.833 -0.0253 -0.3005 -0.2126
   94POPC   H7R12520   0.859   0.705   4.808 -1.3541 -1.5824  0.4917
   94POPC   H7S12521   0.907   0.562   4.908 -0.5930 -0.7052 -0.8672
   94POPC   C2812522   0.994   0.559   4.713  1.6264 -0.3980 -0.7867
   94POPC   H8R12523   1.085   0.505   4.748  2.0061  0.4377 -0.4642
   94POPC   H8S12524   1.036   0.616   4.628 -0.0009 -1.4189 -2.3428
   94POPC   C2912525   0.894   0.462   4.666  0.1031  0.9905  0.0250
   94POPC   H9112526   0.885   0.370   4.725 -0.1983  1.0898  0.1347
   94POPC  C21012527   0.796   0.480   4.570 -0.4737 -0.5097 -0.5735
   94POPC  H10112528   0.721   0.400   4.560 -1.6518  0.5796 -0.7646
   94POPC  C21112529   0.768   0.604   4.489  0.7581  0.5870 -0.4555
   94POPC  H11R12530   0.795   0.582   4.383  1.0303  1.9705 -0.6962
   94POPC  H11S12531   0.829   0.683   4.538  2.5972  0.0926 -1.8338
   94POPC  C21212532   0.615   0.629   4.485  0.1801 -0.5006  0.3339
   94POPC  H12R12533   0.561   0.643   4.582 -0.4789  1.1229 -0.2303
   94POPC  H12S12534   0.566   0.544   4.433 -2.5076  1.6341 -0.8832
   94POPC  C21312535   0.580   0.749   4.397  0.0120  0.4130 -0.1767
   94POPC  H13R12536   0.485   0.716   4.350 -0.2630  0.9985 -0.0337
   94POPC  H13S12537   0.650   0.755   4.311  2.0086 -0.6883  1.2724
   94POPC  C21412538   0.567   0.878   4.467 -0.8008 -0.5097 -0.5521
   94POPC  H14R12539   0.663   0.934   4.475 -0.6285 -0.9970  1.0792
   94POPC  H14S12540   0.542   0.856   4.572 -0.8582  1.7260 -0.0302
   94POPC  C21512541   0.467   0.978   4.410  0.6964 -0.0231  0.1375
   94POPC  H15R12542   0.370   0.923   4.417  0.7100  0.0847  1.3654
   94POPC  H15S12543   0.474   1.004   4.302  0.5744 -1.7035 -0.2996
   94POPC  C21612544   0.461   1.108   4.483  0.7343 -0.5743 -0.7031
   94POPC  H16R12545   0.559   1.161   4.484 -1.1040  3.1428 -0.3174
   94POPC  H16S12546   0.435   1.085   4.588  0.5950 -0.4770 -0.7168
   94POPC  C21712547   0.361   1.219   4.424 -0.9056 -0.1843  0.2139
   94POPC  H17R12548   0.356   1.297   4.503  2.1231  0.2281  0.1287
   94POPC  H17S12549   0.265   1.165   4.411  0.0069 -1.5120 -1.4135
   94POPC  C21812550   0.399   1.293   4.299  0.6475  0.1080 -0.3309
   94POPC  H18R12551   0.384   1.226   4.212 -3.6519  0.9381 -0.4452
   94POPC  H18S12552   0.499   1.341   4.308  1.1181 -1.0751  1.0585
   94POPC  H18T12553   0.321   1.371   4.283 -0.8923 -0.8563  1.8700
   94POPC   C3312554   1.320   0.980   5.516 -0.3607 -1.2443 -0.0115
   94POPC   H3X12555   1.248   1.064   5.527  0.1280 -0.7990 -0.1711
   94POPC   H3Y12556   1.268   0.912   5.445 -2.3440  0.5313 -0.3415
   94POPC   C3412557   1.432   1.055   5.444 -0.3127 -0.0808  0.3454
   94POPC   H4X12558   1.428   1.162   5.470 -0.3473 -0.3494  1.4798
   94POPC   H4Y12559   1.415   1.041   5.335 -1.8671  0.6278  0.4681
   94POPC   C3512560   1.579   1.005   5.466 -0.1477 -0.2708  0.3458
   94POPC   H5X12561   1.611   0.906   5.427  1.9912  0.1479  0.8862
   94POPC   H5Y12562   1.601   1.003   5.575 -0.3801  1.1769  0.4438
   94POPC   C3612563   1.670   1.103   5.397  0.5646 -0.5917 -0.5918
   94POPC   H6X12564   1.773   1.087   5.435  0.4119  1.0425  0.6230
   94POPC   H6Y12565   1.664   1.210   5.424  5.9149  0.4039 -2.2175
   94POPC   C3712566   1.676   1.072   5.248 -0.0463  0.8746 -0.4657
   94POPC   H7X12567   1.605   0.993   5.215  0.5361  0.6833 -1.2937
   94POPC   H7Y12568   1.776   1.033   5.219 -0.0908 -0.4651  0.9916
   94POPC   C3812569   1.645   1.196   5.168  0.3873  0.5374  0.0126
   94POPC   H8X12570   1.732   1.262   5.188  0.5116 -0.2828  2.4513
   94POPC   H8Y12571   1.555   1.247   5.209  0.3013  0.9734 -0.7128
   94POPC   C3912572   1.629   1.165   5.023 -0.3562 -0.1790  0.0551
   94POPC   H9X12573   1.529   1.119   5.004 -0.7174  0.0428  1.2978
   94POPC   H9Y12574   1.704   1.091   4.989 -0.8520 -2.1608  2.9184
   94POPC  C31012575   1.643   1.295   4.938  0.0575 -0.3630  0.0339
   94POPC  H10X12576   1.730   1.350   4.980 -1.6426  1.2510  1.5772
   94POPC  H10Y12577   1.550   1.348   4.967 -0.3105 -1.8010  1.6693
   94POPC  C31112578   1.646   1.278   4.787  0.4956  0.5831 -0.3584
   94POPC  H11X12579   1.711   1.191   4.767  1.1552  0.3928  2.2559
   94POPC  H11Y12580   1.704   1.353   4.729  0.0062  0.8515 -0.5099
   94POPC  C31212581   1.513   1.233   4.724  0.0468  0.5218  0.9222
   94POPC  H12X12582   1.455   1.326   4.743 -0.1597  1.1813 -2.2835
   94POPC  H12Y12583   1.460   1.146   4.769  0.3424 -0.8746 -1.2768
   94POPC  C31312584   1.514   1.226   4.572 -0.8678 -0.0722  0.0816
   94POPC  H13X12585   1.557   1.320   4.533 -0.6684 -0.1411  0.1368
   94POPC  H13Y12586   1.405   1.230   4.548 -0.7111  2.0220 -0.4528
   94POPC  C31412587   1.572   1.101   4.511  0.2933 -0.1846  0.0032
   94POPC  H14X12588   1.510   1.010   4.530 -0.0919  0.4621  2.0881
   94POPC  H14Y12589   1.670   1.080   4.559  1.1071  1.4465 -0.8874
   94POPC  C31512590   1.595   1.113   4.364 -0.5891 -0.7210 -0.3987
   94POPC  H15X12591   1.673   1.189   4.344 -0.7125 -0.1587  1.0974
   94POPC  H15Y12592   1.508   1.146   4.303  1.3559  2.9093 -1.4891
   94POPC  C31612593   1.650   0.979   4.308  0.4057  0.1341  0.3657
   94POPC  H16X12594   1.583   0.894   4.333  1.2793 -0.5539  0.4315
   94POPC  H16Y12595   1.744   0.946   4.358 -0.6165  1.0074  3.0381
   94POPC  H16Z12596   1.659   0.978   4.197 -1.7572 -0.6476  0.1537
   95POPC     N12597   1.298   7.955   5.519 -0.7505 -0.2511 -0.3564
   95POPC   C1212598   1.172   7.891   5.476  0.2930 -0.3486 -0.0821
   95POPC  H12A12599   1.165   7.789   5.511 -0.3838  0.1290  1.2208
   95POPC  H12B12600   1.181   7.873   5.370  1.0366 -1.3683  0.1389
   95POPC   C1312601   1.293   7.976   5.667  0.1796  1.1169  0.1678
   95POPC  H13A12602   1.202   8.030   5.690 -0.1194  0.0217  1.7536
   95POPC  H13B12603   1.293   7.883   5.722 -0.2404  1.0320  0.0282
   95POPC  H13C12604   1.364   8.041   5.717  0.8860  1.4222 -1.1822
   95POPC   C1412605   1.418   7.872   5.488  1.1078  0.0782 -0.4719
   95POPC  H14A12606   1.419   7.836   5.386  1.2323  2.1504 -1.2428
   95POPC  H14B12607   1.505   7.936   5.498 -0.3418  1.8263  2.1449
   95POPC  H14C12608   1.422   7.779   5.543  1.5595 -0.6659 -1.7302
   95POPC   C1512609   1.317   8.087   5.445 -0.1995 -0.3552 -0.7606
   95POPC  H15A12610   1.227   8.144   5.463  0.6918  0.7514  0.3846
   95POPC  H15B12611   1.316   8.079   5.337 -2.4822  2.9609 -1.1124
   95POPC  H15C12612   1.396   8.143   5.492 -0.1340 -1.1582  0.1178
   95POPC   C1112613   1.048   7.974   5.505  0.0603  0.8042 -0.3610
   95POPC  H11A12614   1.049   8.078   5.465  2.7848  2.2274  2.8839
   95POPC  H11B12615   1.035   7.982   5.615  1.2933  3.1965 -0.3101
   95POPC     P12616   0.926   7.886   5.302  0.1281  0.2939  0.3186
   95POPC   O1312617   0.788   7.865   5.253 -0.3105  0.0741  0.5936
   95POPC   O1412618   1.026   7.783   5.260  0.0731  0.0083  0.1217
   95POPC   O1212619   0.935   7.901   5.456  0.2950 -0.0188 -0.2415
   95POPC   O1112620   0.972   8.024   5.257 -0.0215 -0.2496  0.1492
   95POPC    C112621   1.054   8.059   5.140  0.4236  0.0111 -0.5923
   95POPC    HA12622   1.152   8.008   5.147  0.9662  1.1050  0.0923
   95POPC    HB12623   1.064   8.168   5.160  0.2422 -0.2336  1.0417
   95POPC    C212624   0.996   8.039   5.005  0.0392 -0.0460  0.1802
   95POPC    HS12625   0.904   8.102   4.996  0.0138  0.2539  2.0624
   95POPC   O2112626   0.977   7.904   4.989  0.1879 -0.1838  0.6326
   95POPC   C2112627   0.871   7.865   4.922 -0.1701  0.1769 -0.1097
   95POPC   O2212628   0.782   7.939   4.887  0.3435 -0.0171  0.1350
   95POPC   C2212629   0.885   7.717   4.886  0.4373  0.3400 -0.4541
   95POPC   H2R12630   0.839   7.653   4.964 -0.3738  1.1045 -0.2911
   95POPC   H2S12631   0.994   7.693   4.880  0.1216 -1.1084 -0.7418
   95POPC    C312632   1.101   8.081   4.892  1.0470 -1.0595 -0.2073
   95POPC    HX12633   1.191   8.018   4.908  1.1700 -0.9241 -0.3552
   95POPC    HY12634   1.128   8.188   4.908 -0.8886 -0.5760  0.0706
   95POPC   O3112635   1.053   8.060   4.754  0.1096  0.1469  0.1802
   95POPC   C3112636   0.951   8.138   4.725  0.1875  0.2761 -0.4481
   95POPC   O3212637   0.914   8.235   4.791 -0.5556  0.5367 -0.4705
   95POPC   C3212638   0.885   8.094   4.595 -0.8314 -0.1951  0.3010
   95POPC   H2X12639   0.837   7.996   4.615  3.1807 -1.8496  3.3234
   95POPC   H2Y12640   0.966   8.087   4.519 -0.6852 -4.5489  0.6417
   95POPC   C2312641   0.830   7.672   4.753 -0.3048  0.4371 -0.5176
   95POPC   H3R12642   0.727   7.713   4.744 -0.9585 -0.8353  0.8093
   95POPC   H3S12643   0.824   7.562   4.744 -0.9488  0.3881  0.4137
   95POPC   C2412644   0.925   7.717   4.636 -0.0507 -0.9737 -0.3122
   95POPC   H4R12645   1.029   7.680   4.652 -0.6427 -2.1048  1.1176
   95POPC   H4S12646   0.945   7.826   4.632 -1.7756 -0.6753 -2.9757
   95POPC   C2512647   0.865   7.687   4.499  0.9012 -0.0285  0.4427
   95POPC   H5R12648   0.781   7.757   4.483 -1.4909 -2.0106  3.3543
   95POPC   H5S12649   0.818   7.586   4.503 -0.0614  0.3892 -0.0756
   95POPC   C2612650   0.971   7.690   4.387  0.5410  0.8378 -0.1688
   95POPC   H6R12651   0.923   7.648   4.296  0.4400  0.8096 -0.1026
   95POPC   H6S12652   1.051   7.619   4.416  0.4169  0.2845 -1.1735
   95POPC   C2712653   1.027   7.828   4.354  0.0777 -0.5665 -0.9496
   95POPC   H7R12654   1.080   7.861   4.446 -0.3085  1.2835 -1.3523
   95POPC   H7S12655   0.945   7.901   4.337 -1.8177 -2.3139  0.2139
   95POPC   C2812656   1.122   7.824   4.234  0.1450  0.6596 -0.2326
   95POPC   H8R12657   1.062   7.791   4.146  0.0523 -1.3273  0.5285
   95POPC   H8S12658   1.200   7.747   4.251  1.0400  1.4733 -0.4967
   95POPC   C2912659   1.185   7.956   4.207 -0.9851 -0.5622 -0.4274
   95POPC   H9112660   1.117   8.040   4.227  3.7289  3.3566  1.1385
   95POPC  C21012661   1.312   7.990   4.172 -0.2976 -0.1356  0.0142
   95POPC  H10112662   1.346   8.088   4.135  1.6696 -0.7567  0.0563
   95POPC  C21112663   1.401   7.875   4.152 -0.4322  0.2465  0.1706
   95POPC  H11R12664   1.391   7.837   4.048  3.2804  0.7419 -0.5425
   95POPC  H11S12665   1.394   7.796   4.230 -1.6260  0.4720  0.3003
   95POPC  C21212666   1.553   7.917   4.165  0.3685  0.7264  0.0385
   95POPC  H12R12667   1.563   8.008   4.103  1.5285  0.6831  0.1456
   95POPC  H12S12668   1.618   7.846   4.110 -0.0987  1.0542 -0.9505
   95POPC  C21312669   1.602   7.929   4.315 -0.4535  0.5570  0.1624
   95POPC  H13R12670   1.618   7.828   4.358  0.7506  0.4705 -0.4424
   95POPC  H13S12671   1.519   7.983   4.366 -0.9295  0.4983 -0.5320
   95POPC  C21412672   1.736   8.004   4.336  0.3153 -0.5238  0.1244
   95POPC  H14R12673   1.821   7.966   4.275 -0.4037 -0.0386 -1.2082
   95POPC  H14S12674   1.760   8.005   4.445 -0.7972  2.2703  0.4026
   95POPC  C21512675   1.728   8.157   4.303  0.0598  0.4820  0.5440
   95POPC  H15R12676   1.626   8.197   4.320  0.0191  0.1671  1.0504
   95POPC  H15S12677   1.749   8.167   4.194 -1.5903 -0.6164  0.0921
   95POPC  C21612678   1.824   8.242   4.389 -0.7181  0.2088 -0.2222
   95POPC  H16R12679   1.839   8.343   4.346 -0.4696 -1.1377 -3.5651
   95POPC  H16S12680   1.924   8.196   4.374  0.2198  1.0302  2.7971
   95POPC  C21712681   1.800   8.259   4.540 -0.1249  0.3438 -0.4650
   95POPC  H17R12682   1.767   8.159   4.577 -1.0735  1.3930  1.6821
   95POPC  H17S12683   1.715   8.328   4.560 -0.4864 -0.1479 -0.2699
   95POPC  C21812684   1.911   8.312   4.633  0.0644  0.2100  0.6376
   95POPC  H18R12685   1.994   8.238   4.637  0.5640  0.6851 -0.4661
   95POPC  H18S12686   1.870   8.345   4.731  1.0350  0.2261  1.0447
   95POPC  H18T12687   1.951   8.402   4.581  1.3309 -0.2323  0.8071
   95POPC   C3312688   0.774   8.194   4.551 -0.3716  0.2570 -0.0549
   95POPC   H3X12689   0.820   8.292   4.526  0.4345 -0.1423 -0.1553
   95POPC   H3Y12690   0.690   8.216   4.621  0.1697  3.7673 -0.3188
   95POPC   C3412691   0.707   8.131   4.425 -0.4486  0.5964 -0.0107
   95POPC   H4X12692   0.646   8.047   4.464  1.0630 -0.8043 -0.5389
   95POPC   H4Y12693   0.790   8.094   4.361 -0.6395  2.3459 -1.3451
   95POPC   C3512694   0.613   8.220   4.342 -0.2607  0.0628  0.2116
   95POPC   H5X12695   0.532   8.264   4.404  0.5205  0.4243  0.9810
   95POPC   H5Y12696   0.557   8.157   4.269  0.7205  0.1802 -0.6580
   95POPC   C3612697   0.689   8.324   4.254  0.1734  0.0129  0.3715
   95POPC   H6X12698   0.723   8.399   4.330  0.3437 -0.7642  1.0858
   95POPC   H6Y12699   0.613   8.363   4.183 -0.9538 -0.2038  1.4287
   95POPC   C3712700   0.807   8.279   4.169  0.0661 -0.2094  0.0819
   95POPC   H7X12701   0.796   8.187   4.108 -0.0038 -0.0081 -0.2122
   95POPC   H7Y12702   0.893   8.255   4.236 -0.2300 -0.3541  0.4165
   95POPC   C3812703   0.868   8.389   4.080  0.0558 -0.2832  0.1287
   95POPC   H8X12704   0.965   8.359   4.036 -0.6448  0.1620 -1.8169
   95POPC   H8Y12705   0.888   8.473   4.149 -2.7673 -0.8677  1.8490
   95POPC   C3912706   0.780   8.427   3.967 -0.4128 -0.1934  0.3025
   95POPC   H9X12707   0.671   8.420   3.984 -0.2944  0.5632  1.4550
   95POPC   H9Y12708   0.799   8.358   3.882  2.2109 -0.1253  0.7358
   95POPC  C31012709   0.805   8.570   3.913  0.2060 -0.0027 -0.2408
   95POPC  H10X12710   0.814   8.635   4.002  1.3890  0.3188 -0.5767
   95POPC  H10Y12711   0.717   8.596   3.849 -1.6971 -1.7534  1.5091
   95POPC  C31112712   0.941   8.580   3.827 -0.0125 -0.6811  0.0933
   95POPC  H11X12713   0.956   8.494   3.758  1.9993  0.0662 -0.4662
   95POPC  H11Y12714   1.028   8.581   3.896  1.2153  0.1684 -1.4105
   95POPC  C31212715   0.959   8.714   3.761  0.2205  0.1729  0.7164
   95POPC  H12X12716   0.893   8.712   3.672 -2.9103  1.5891  2.8083
   95POPC  H12Y12717   1.060   8.720   3.715 -0.1985 -0.7905 -0.3866
   95POPC  C31312718   0.941   8.830   3.856  0.8047 -0.1362 -0.3736
   95POPC  H13X12719   1.019   8.811   3.932  0.3130  0.7043  0.3609
   95POPC  H13Y12720   0.840   8.831   3.901  1.3293 -1.5200  0.9045
   95POPC  C31412721   0.979   8.967   3.792 -0.0977 -0.0292 -0.2937
   95POPC  H14X12722   0.959   9.059   3.852  1.1388  0.7239 -0.9981
   95POPC  H14Y12723   0.922   8.977   3.697 -1.4812  1.3702  0.6348
   95POPC  C31512724   1.125   8.973   3.751  0.2847  0.1541 -0.1423
   95POPC  H15X12725   1.146   8.897   3.671 -2.2211 -0.9678  0.1570
   95POPC  H15Y12726   1.191   8.964   3.840  2.3126  0.4455 -1.5220
   95POPC  C31612727   1.151   9.109   3.698 -0.6700  0.7876 -0.3937
   95POPC  H16X12728   1.260   9.121   3.682 -0.1371 -0.8624  1.7067
   95POPC  H16Y12729   1.121   9.192   3.765  3.3658  1.9097  0.2538
   95POPC  H16Z12730   1.104   9.122   3.598  1.0479 -2.7213 -1.8530
   96POPC     N12731   0.295   3.339   5.873 -0.5388  0.5944  0.0610
   96POPC   C1212732   0.394   3.223   5.908  0.2822 -0.0847 -0.4576
   96POPC  H12A12733   0.452   3.199   5.820 -1.4600  3.0983 -2.7167
   96POPC  H12B12734   0.326   3.140   5.920  0.9652 -0.7419 -1.0419
   96POPC   C1312735   0.183   3.291   5.789  0.3100  0.1098 -0.6240
   96POPC  H13A12736   0.222   3.238   5.703  1.4400 -2.6942  1.4456
   96POPC  H13B12737   0.119   3.221   5.841 -0.3015 -1.6292 -3.4865
   96POPC  H13C12738   0.116   3.367   5.752  0.2598 -0.1280 -1.0339
   96POPC   C1412739   0.248   3.406   5.997  0.0806  0.3471  0.5526
   96POPC  H14A12740   0.318   3.483   6.027 -0.4144 -0.2914  3.7335
   96POPC  H14B12741   0.155   3.458   5.980 -0.8260 -1.4016 -0.1419
   96POPC  H14C12742   0.239   3.333   6.077  1.2380 -0.0674  0.3205
   96POPC   C1512743   0.370   3.443   5.788 -0.6054  0.5601  0.3223
   96POPC  H15A12744   0.379   3.406   5.687  1.4926  1.5552  0.0997
   96POPC  H15B12745   0.467   3.470   5.826 -0.4830 -0.6438  0.8787
   96POPC  H15C12746   0.308   3.529   5.766 -0.9625  0.0546 -0.7113
   96POPC   C1112747   0.476   3.226   6.036 -0.2490 -0.1640 -0.4566
   96POPC  H11A12748   0.533   3.131   6.038 -0.4909 -0.3849 -2.2434
   96POPC  H11B12749   0.405   3.237   6.120  1.3943  0.7608  0.8704
   96POPC     P12750   0.705   3.351   5.960  0.3675 -0.0105 -0.0478
   96POPC   O1312751   0.787   3.227   5.965 -0.6451 -0.4764  0.2331
   96POPC   O1412752   0.769   3.482   5.996  0.0067 -0.9864  0.1821
   96POPC   O1212753   0.566   3.338   6.038 -0.2421  0.1337  0.2762
   96POPC   O1112754   0.654   3.361   5.811 -0.9019 -0.1429  0.2275
   96POPC    C112755   0.749   3.327   5.703 -0.2359 -0.4010 -0.0371
   96POPC    HA12756   0.784   3.221   5.705  0.5526 -0.1420  2.1310
   96POPC    HB12757   0.831   3.401   5.711 -1.5320  1.4682 -2.8123
   96POPC    C212758   0.681   3.351   5.563 -0.1390  0.0754  0.5387
   96POPC    HS12759   0.763   3.356   5.488 -1.5021  1.4059 -0.9314
   96POPC   O2112760   0.617   3.481   5.557 -0.3105  0.0088 -0.1107
   96POPC   C2112761   0.689   3.590   5.580 -0.5593 -0.2957  1.1455
   96POPC   O2212762   0.809   3.599   5.591 -0.6921  0.4604 -0.1401
   96POPC   C2212763   0.599   3.709   5.573  0.2453 -0.1791 -0.0147
   96POPC   H2R12764   0.589   3.733   5.681  0.9554 -1.0836  0.2616
   96POPC   H2S12765   0.493   3.686   5.548  0.4888 -1.4950  0.1024
   96POPC    C312766   0.573   3.248   5.521  0.0437 -0.5694  0.9008
   96POPC    HX12767   0.499   3.240   5.602 -1.3996 -0.4960 -0.3668
   96POPC    HY12768   0.624   3.150   5.510 -2.3444 -1.6223 -2.9381
   96POPC   O3112769   0.510   3.280   5.393 -0.2725 -0.2353 -0.5941
   96POPC   C3112770   0.376   3.291   5.391 -0.1024 -0.7226 -0.4712
   96POPC   O3212771   0.310   3.276   5.489  0.3523 -0.0531  0.1183
   96POPC   C3212772   0.327   3.326   5.250  0.0691 -0.5719 -0.7512
   96POPC   H2X12773   0.305   3.233   5.193  0.5504 -1.2189  0.1105
   96POPC   H2Y12774   0.405   3.386   5.199  0.9334 -1.2904 -0.3069
   96POPC   C2312775   0.649   3.832   5.497 -0.3194  0.3062 -0.2197
   96POPC   H3R12776   0.760   3.839   5.496 -0.1891 -1.3955 -1.1404
   96POPC   H3S12777   0.623   3.923   5.556 -0.0872 -0.2874  0.8205
   96POPC   C2412778   0.608   3.840   5.352 -0.2662  0.1641  0.1816
   96POPC   H4R12779   0.504   3.808   5.331 -0.4547 -0.1976  1.5888
   96POPC   H4S12780   0.664   3.761   5.298  0.7750  1.2307 -0.3508
   96POPC   C2512781   0.637   3.978   5.299  0.2194  0.0634 -0.0244
   96POPC   H5R12782   0.740   4.005   5.330  0.9008 -1.8348 -0.5672
   96POPC   H5S12783   0.568   4.053   5.345  0.8732  1.2948 -0.9695
   96POPC   C2612784   0.619   3.988   5.145 -0.0463 -0.5450  0.2082
   96POPC   H6R12785   0.516   3.956   5.118  0.4187  0.2076 -2.7922
   96POPC   H6S12786   0.694   3.918   5.101  1.8661  0.3546  1.8543
   96POPC   C2712787   0.640   4.134   5.081 -0.1472  0.9356 -0.8155
   96POPC   H7R12788   0.737   4.175   5.114  0.3515 -1.1926  0.5985
   96POPC   H7S12789   0.570   4.200   5.137 -0.3832 -0.1989  0.2675
   96POPC   C2812790   0.620   4.134   4.929 -0.2193  0.0358 -0.1415
   96POPC   H8R12791   0.511   4.114   4.926  0.1191 -3.0843  2.3336
   96POPC   H8S12792   0.665   4.044   4.882  0.5509 -0.3755  1.3090
   96POPC   C2912793   0.683   4.255   4.849  0.8200 -0.2496  0.0070
   96POPC   H9112794   0.691   4.346   4.911  0.0220 -1.0380  1.3333
   96POPC  C21012795   0.744   4.260   4.732 -0.8455 -0.6523  0.0411
   96POPC  H10112796   0.766   4.364   4.702 -1.6808  0.0987  1.9022
   96POPC  C21112797   0.770   4.144   4.648 -0.7627  0.5977  1.0639
   96POPC  H11R12798   0.770   4.185   4.545  2.8274  1.9584  1.4643
   96POPC  H11S12799   0.685   4.073   4.639 -0.4696  0.2359  1.0994
   96POPC  C21212800   0.900   4.063   4.678  0.1526 -0.3537 -0.2390
   96POPC  H12R12801   0.887   3.971   4.618 -0.5338 -0.2007 -0.3385
   96POPC  H12S12802   0.897   4.027   4.783 -0.9532 -0.6927 -0.3740
   96POPC  C21312803   1.027   4.143   4.647  0.1167  0.6204 -0.5930
   96POPC  H13R12804   1.031   4.212   4.734 -2.0961 -0.8898  0.8118
   96POPC  H13S12805   1.010   4.195   4.550 -0.1240 -1.0853 -1.5019
   96POPC  C21412806   1.151   4.061   4.639 -0.3235  0.7405  0.0034
   96POPC  H14R12807   1.154   4.021   4.535 -0.8689  0.5245  0.0720
   96POPC  H14S12808   1.133   3.979   4.712 -0.6480 -1.0180 -1.9557
   96POPC  C21512809   1.287   4.129   4.671  0.7838  0.2551  0.3174
   96POPC  H15R12810   1.276   4.184   4.766 -0.1919  1.2799 -0.3676
   96POPC  H15S12811   1.327   4.201   4.596  1.3693  0.3664  0.7270
   96POPC  C21612812   1.393   4.018   4.681 -0.0575  0.4443  0.9223
   96POPC  H16R12813   1.392   3.965   4.583 -0.7671  0.9452  0.6540
   96POPC  H16S12814   1.377   3.948   4.766  0.8112  0.2380  0.9286
   96POPC  C21712815   1.540   4.078   4.700 -0.3487  0.3680  0.3339
   96POPC  H17R12816   1.553   4.125   4.800  0.4116 -0.2901  0.5650
   96POPC  H17S12817   1.548   4.161   4.628 -2.5683 -0.2482 -0.6840
   96POPC  C21812818   1.651   3.975   4.675  0.0739  0.0977  0.3298
   96POPC  H18R12819   1.742   4.028   4.639  0.4151 -1.1413 -0.7272
   96POPC  H18S12820   1.621   3.901   4.597 -0.5425  0.7791 -0.0959
   96POPC  H18T12821   1.661   3.915   4.768  1.2727 -2.7176 -1.5018
   96POPC   C3312822   0.207   3.415   5.250  0.0254 -0.9155 -0.3503
   96POPC   H3X12823   0.122   3.385   5.315  0.6740 -1.2235  0.3715
   96POPC   H3Y12824   0.170   3.415   5.145  1.4922 -1.9555 -0.9127
   96POPC   C3412825   0.232   3.559   5.299 -0.4520 -1.0829  0.2716
   96POPC   H4X12826   0.270   3.552   5.403 -0.9914 -0.6355  0.5043
   96POPC   H4Y12827   0.140   3.621   5.291 -0.4257 -1.2121 -1.3596
   96POPC   C3512828   0.340   3.631   5.216  0.3439 -0.7436  0.1719
   96POPC   H5X12829   0.439   3.604   5.260  0.9497  3.1608  1.6180
   96POPC   H5Y12830   0.325   3.737   5.246 -1.2181 -0.7807 -0.3994
   96POPC   C3612831   0.331   3.635   5.063 -0.7903  0.0857  0.2238
   96POPC   H6X12832   0.244   3.700   5.041  1.0723  2.4978 -0.4126
   96POPC   H6Y12833   0.314   3.536   5.016  1.8104  0.0376 -0.7451
   96POPC   C3712834   0.466   3.680   5.003 -0.0175 -0.3434 -0.4420
   96POPC   H7X12835   0.551   3.627   5.050 -0.0357 -0.9364 -1.0775
   96POPC   H7Y12836   0.486   3.787   5.027  2.1314 -1.3266  2.8283
   96POPC   C3812837   0.466   3.671   4.846 -0.1139  0.7767  0.8606
   96POPC   H8X12838   0.384   3.736   4.809 -1.1487 -1.4113 -0.9091
   96POPC   H8Y12839   0.440   3.571   4.806  2.0094  1.0675 -1.4338
   96POPC   C3912840   0.601   3.710   4.791  0.5124 -0.2817  0.0669
   96POPC   H9X12841   0.671   3.627   4.813 -2.2912 -2.7680  0.1770
   96POPC   H9Y12842   0.634   3.804   4.841  1.2986 -2.0273  3.0769
   96POPC  C31012843   0.596   3.729   4.640  0.3708 -0.3340  0.5381
   96POPC  H10X12844   0.673   3.804   4.612  0.8731 -1.5664 -1.6350
   96POPC  H10Y12845   0.501   3.774   4.604  0.7755 -0.4609 -0.7484
   96POPC  C31112846   0.629   3.606   4.554 -0.5034  0.3165  0.2567
   96POPC  H11X12847   0.556   3.527   4.581  0.7264 -1.7159 -1.9460
   96POPC  H11Y12848   0.729   3.558   4.565 -0.9888 -1.0874 -1.0914
   96POPC  C31212849   0.617   3.643   4.402 -0.2134 -0.2190 -0.1272
   96POPC  H12X12850   0.511   3.666   4.381  0.4710  2.7022 -0.9421
   96POPC  H12Y12851   0.638   3.545   4.355 -1.4566 -1.5663  1.9960
   96POPC  C31312852   0.719   3.748   4.343 -0.1582 -0.2830 -0.1386
   96POPC  H13X12853   0.710   3.844   4.399 -0.8320 -0.0663 -0.6065
   96POPC  H13Y12854   0.698   3.774   4.238 -0.1458 -0.2462 -0.1321
   96POPC  C31412855   0.865   3.702   4.347  0.3467 -0.1164  0.1382
   96POPC  H14X12856   0.885   3.635   4.433  1.9596  1.1285  0.7854
   96POPC  H14Y12857   0.928   3.791   4.371 -1.2390  0.3640  3.0187
   96POPC  C31512858   0.898   3.634   4.215 -0.0259 -0.3885  0.8018
   96POPC  H15X12859   0.878   3.702   4.129 -0.6630 -1.9198 -0.3166
   96POPC  H15Y12860   0.836   3.544   4.199 -0.3500 -0.0896  0.3562
   96POPC  C31612861   1.049   3.581   4.209  0.8222  0.2745 -0.4774
   96POPC  H16X12862   1.075   3.554   4.105  3.2676 -0.7936  0.3401
   96POPC  H16Y12863   1.053   3.498   4.283 -0.2087  1.0057  0.4381
   96POPC  H16Z12864   1.115   3.660   4.251  0.1947  1.3480 -1.4623
   97POPC     N12865   7.929   1.853   5.841  0.2961  0.5070 -0.1498
   97POPC   C1212866   7.787   1.893   5.806 -0.2546  0.3145 -0.3326
   97POPC  H12A12867   7.761   1.976   5.870  1.2148  2.2936 -2.1792
   97POPC  H12B12868   7.717   1.812   5.822  0.5053 -0.4238 -0.6858
   97POPC   C1312869   8.027   1.962   5.858  0.4745 -0.2024  0.3983
   97POPC  H13A12870   8.120   1.914   5.882  0.2970 -1.5342 -1.3120
   97POPC  H13B12871   8.038   2.005   5.759  1.2430  0.8937  0.9553
   97POPC  H13C12872   7.990   2.036   5.926  0.9097 -1.0901  1.6273
   97POPC   C1412873   7.918   1.786   5.977 -0.6779  0.3448  0.1729
   97POPC  H14A12874   7.847   1.704   5.972 -1.0995  0.7362 -0.4479
   97POPC  H14B12875   8.008   1.734   6.006 -0.1210 -1.1457 -3.6108
   97POPC  H14C12876   7.875   1.862   6.040  1.1413  1.6391 -0.0870
   97POPC   C1512877   7.976   1.748   5.749 -0.0588  0.3911  0.7861
   97POPC  H15A12878   7.995   1.788   5.651  0.8693 -0.6804  0.4940
   97POPC  H15B12879   7.895   1.678   5.732 -0.8724  1.2431  1.1185
   97POPC  H15C12880   8.053   1.690   5.798  0.2151  1.3335  1.4983
   97POPC   C1112881   7.758   1.950   5.664  0.7474  0.0823 -0.5033
   97POPC  H11A12882   7.829   2.029   5.630  1.6802 -0.6404 -0.2793
   97POPC  H11B12883   7.663   2.007   5.673  0.3890 -0.6633  0.7058
   97POPC     P12884   7.628   1.794   5.510  0.0882 -0.2324 -0.1934
   97POPC   O1312885   7.526   1.774   5.619 -0.4670 -0.2818  0.6446
   97POPC   O1412886   7.664   1.681   5.426  0.2549  0.1968 -0.1322
   97POPC   O1212887   7.761   1.842   5.575 -0.3027 -0.0208 -0.1690
   97POPC   O1112888   7.586   1.918   5.426 -0.3228 -0.3601  0.2844
   97POPC    C112889   7.597   1.930   5.286 -0.0496 -0.4251 -0.1327
   97POPC    HA12890   7.535   2.016   5.254  1.8976  1.8930  2.0187
   97POPC    HB12891   7.562   1.834   5.242 -0.4786 -0.5610  0.4919
   97POPC    C212892   7.733   1.966   5.239  0.0607 -0.8781  0.0055
   97POPC    HS12893   7.808   1.898   5.286  1.3677  0.3314 -0.2518
   97POPC   O2112894   7.760   2.102   5.277  0.3630 -0.9804 -0.4179
   97POPC   C2112895   7.885   2.127   5.300 -0.5685 -0.2740  0.2961
   97POPC   O2212896   7.969   2.045   5.320 -0.2180 -0.0349  0.1813
   97POPC   C2212897   7.912   2.282   5.317 -0.2866  0.6311 -0.3141
   97POPC   H2R12898   7.877   2.312   5.418  1.5278 -1.0263  0.8978
   97POPC   H2S12899   7.859   2.319   5.228 -0.0936 -1.1809 -1.2350
   97POPC    C312900   7.753   1.944   5.088  0.6152 -0.0493 -0.0965
   97POPC    HX12901   7.664   1.989   5.039  0.9968 -1.1291 -1.8936
   97POPC    HY12902   7.730   1.836   5.073  0.4742 -0.2357  1.3575
   97POPC   O3112903   7.872   1.992   5.028  0.1684  0.2841  0.3642
   97POPC   C3112904   7.976   1.907   5.028  1.2202  0.6229  0.2561
   97POPC   O3212905   7.979   1.798   5.085 -0.5026  0.1858 -0.3388
   97POPC   C3212906   8.094   1.970   4.949  0.2837  0.2133 -0.3967
   97POPC   H2X12907   8.185   1.961   5.012  1.6212 -1.7979 -2.4655
   97POPC   H2Y12908   8.067   2.076   4.932  0.3305  0.3636  0.4130
   97POPC   C2312909   8.064   2.304   5.292  0.1281 -0.1162 -0.6528
   97POPC   H3R12910   8.124   2.259   5.374 -2.1953  1.0693  1.8400
   97POPC   H3S12911   8.085   2.413   5.303 -4.0621  0.9431 -1.5624
   97POPC   C2412912   8.122   2.263   5.159  0.0007  0.4849  0.1047
   97POPC   H4R12913   8.063   2.323   5.086  2.3432  2.6600 -0.1633
   97POPC   H4S12914   8.098   2.155   5.162  1.0366  0.1844 -1.2682
   97POPC   C2512915   8.271   2.298   5.144 -0.7147  0.2353 -0.8964
   97POPC   H5R12916   8.292   2.366   5.229  0.7223 -1.0336 -0.1904
   97POPC   H5S12917   8.289   2.354   5.050  1.8543 -0.0364 -0.6329
   97POPC   C2612918   8.372   2.184   5.146 -0.1335  0.0989  0.0125
   97POPC   H6R12919   8.473   2.228   5.125  0.0443 -0.1377  0.3585
   97POPC   H6S12920   8.351   2.110   5.067  0.0585  1.4753 -1.3866
   97POPC   C2712921   8.364   2.094   5.277  0.1434 -0.7087  0.1417
   97POPC   H7R12922   8.265   2.044   5.272 -0.2921 -0.0390  1.4605
   97POPC   H7S12923   8.368   2.158   5.368  0.0896 -0.9153  0.2904
   97POPC   C2812924   8.476   1.989   5.285  0.1487 -0.0984  0.4867
   97POPC   H8R12925   8.465   1.935   5.188  0.1112 -0.4368  0.6810
   97POPC   H8S12926   8.456   1.924   5.372 -1.0589 -3.5945 -2.1606
   97POPC   C2912927   8.610   2.062   5.294 -1.0744 -0.1160  1.0036
   97POPC   H9112928   8.611   2.158   5.347  0.5962  0.5116 -0.0790
   97POPC  C21012929   8.723   2.033   5.216 -0.7947  1.3259  0.5116
   97POPC  H10112930   8.801   2.110   5.209  1.4384 -0.9504 -1.3448
   97POPC  C21112931   8.742   1.931   5.107  0.4118 -0.4241  0.1310
   97POPC  H11R12932   8.683   1.839   5.127 -2.9437  1.2601 -1.1949
   97POPC  H11S12933   8.849   1.902   5.107  0.3388 -0.7822 -1.6304
   97POPC  C21212934   8.713   1.987   4.966 -0.3183 -0.1289  0.4752
   97POPC  H12R12935   8.786   2.069   4.948  2.7452 -2.9847 -1.2334
   97POPC  H12S12936   8.608   2.024   4.968  0.0592  0.9510  1.7186
   97POPC  C21312937   8.742   1.889   4.845  0.0112 -0.1863 -1.0186
   97POPC  H13R12938   8.708   1.788   4.874  2.0171 -0.8546 -0.8568
   97POPC  H13S12939   8.851   1.883   4.823  0.0871  1.6367 -1.3276
   97POPC  C21412940   8.665   1.911   4.712 -0.2583  0.1105 -0.1626
   97POPC  H14R12941   8.555   1.923   4.730 -0.2841 -0.4583  0.0800
   97POPC  H14S12942   8.668   1.829   4.638 -4.3229  1.4269 -2.1224
   97POPC  C21512943   8.714   2.041   4.641 -0.1203 -0.0043 -0.4825
   97POPC  H15R12944   8.825   2.038   4.650 -0.2581  0.0555  1.8889
   97POPC  H15S12945   8.695   2.139   4.691 -0.1754  0.5949 -1.6385
   97POPC  C21612946   8.656   2.061   4.499  0.0905 -0.8310 -0.0630
   97POPC  H16R12947   8.661   1.969   4.437  1.3952  0.2316 -1.6426
   97POPC  H16S12948   8.716   2.130   4.436 -0.3396 -0.9302 -0.5806
   97POPC  C21712949   8.511   2.105   4.512  0.4895  0.2554 -0.0378
   97POPC  H17R12950   8.474   2.081   4.614  0.2440  2.4978  0.4393
   97POPC  H17S12951   8.440   2.048   4.448 -0.1122  0.6557  0.2650
   97POPC  C21812952   8.495   2.254   4.501  0.1077  0.0629  0.1997
   97POPC  H18R12953   8.404   2.272   4.562  1.1347 -3.1513  2.9648
   97POPC  H18S12954   8.470   2.290   4.399  0.6937  1.2691  0.4628
   97POPC  H18T12955   8.581   2.312   4.539 -0.6523  1.2296  0.1853
   97POPC   C3312956   8.112   1.909   4.811 -0.6537  0.8990  0.2756
   97POPC   H3X12957   8.195   1.964   4.762  0.6059 -1.0585  0.0975
   97POPC   H3Y12958   8.030   1.929   4.739  0.5844 -3.2123 -2.6599
   97POPC   C3412959   8.162   1.767   4.812 -0.2849  0.0798 -0.0940
   97POPC   H4X12960   8.092   1.705   4.872 -1.2697 -0.3063 -1.5602
   97POPC   H4Y12961   8.265   1.767   4.854  0.9229  0.8699 -2.7888
   97POPC   C3512962   8.170   1.699   4.672  0.0527 -0.0702 -0.0556
   97POPC   H5X12963   8.073   1.698   4.616  1.0654 -1.1159 -1.8978
   97POPC   H5Y12964   8.202   1.596   4.699 -1.4374 -0.9382 -1.3677
   97POPC   C3612965   8.267   1.759   4.571  0.4388  0.0161 -0.2530
   97POPC   H6X12966   8.369   1.784   4.607  1.5294 -2.0655 -1.6903
   97POPC   H6Y12967   8.231   1.856   4.532  2.5179  1.6748  1.6710
   97POPC   C3712968   8.283   1.656   4.456  0.1355  0.1908 -0.0695
   97POPC   H7X12969   8.187   1.647   4.401 -1.3367 -0.8943  2.5170
   97POPC   H7Y12970   8.308   1.557   4.500  0.3505  1.7359  3.6613
   97POPC   C3812971   8.396   1.692   4.358  0.2356 -0.8266  0.0143
   97POPC   H8X12972   8.427   1.602   4.301  2.3538  1.2784 -2.4401
   97POPC   H8Y12973   8.484   1.711   4.423 -0.6146  1.5969  0.5446
   97POPC   C3912974   8.355   1.798   4.251 -0.2887  0.3311  0.2017
   97POPC   H9X12975   8.449   1.833   4.203 -1.2833  2.4630 -0.3201
   97POPC   H9Y12976   8.311   1.888   4.299  0.6862  0.6672  0.4731
   97POPC  C31012977   8.267   1.754   4.128  0.0150 -0.1685  0.4284
   97POPC  H10X12978   8.178   1.703   4.171 -1.3574 -0.6175 -2.6973
   97POPC  H10Y12979   8.324   1.684   4.063 -0.6890  0.3338 -0.7643
   97POPC  C31112980   8.207   1.877   4.045 -0.3269 -0.2474  0.1408
   97POPC  H11X12981   8.289   1.952   4.041 -1.0017  0.4334 -2.2305
   97POPC  H11Y12982   8.122   1.927   4.096  1.2408 -0.1337  2.8084
   97POPC  C31212983   8.162   1.834   3.905  0.2959 -0.5894 -0.0833
   97POPC  H12X12984   8.071   1.773   3.919  0.1285 -0.6893 -1.4596
   97POPC  H12Y12985   8.238   1.765   3.863  3.3160  1.4741  1.6313
   97POPC  C31312986   8.117   1.954   3.812 -0.4281 -0.1642 -0.4925
   97POPC  H13X12987   8.032   2.005   3.862  0.7667 -0.6838  2.2226
   97POPC  H13Y12988   8.084   1.913   3.714 -2.2701  1.1008 -0.4486
   97POPC  C31412989   8.222   2.057   3.806 -0.1624  0.1094 -0.2842
   97POPC  H14X12990   8.318   2.025   3.761 -0.5596 -1.0296 -0.3718
   97POPC  H14Y12991   8.246   2.100   3.905  0.6691 -0.5026 -0.2129
   97POPC  C31512992   8.169   2.169   3.713  0.2556  0.8792  0.2740
   97POPC  H15X12993   8.115   2.137   3.621  0.3883  1.8057 -0.1362
   97POPC  H15Y12994   8.263   2.223   3.689  1.4570 -0.1606  2.4178
   97POPC  C31612995   8.073   2.267   3.783  0.5262  0.1652  0.3369
   97POPC  H16X12996   7.986   2.215   3.828  0.3779  1.4571  1.6544
   97POPC  H16Y12997   8.037   2.353   3.722 -3.7689 -0.3351  1.8031
   97POPC  H16Z12998   8.137   2.316   3.861  0.7015 -0.9861  0.9336
   98POPC     N12999   4.340   7.095   6.568  0.0821 -0.3785  0.1963
   98POPC   C1213000   4.359   7.103   6.420 -0.5953 -0.4896 -0.0260
   98POPC  H12A13001   4.357   7.204   6.381 -1.5354 -0.1805  0.7795
   98POPC  H12B13002   4.273   7.061   6.370 -1.4325  2.5509 -1.4241
   98POPC   C1313003   4.472   7.133   6.624  0.3003  0.1157  0.3657
   98POPC  H13A13004   4.538   7.056   6.587  0.1042 -0.0195  0.2981
   98POPC  H13B13005   4.511   7.225   6.585  1.8109 -0.7348 -0.2149
   98POPC  H13C13006   4.469   7.131   6.732  1.0045  0.1329  0.3884
   98POPC   C1413007   4.246   7.190   6.620  0.1340 -0.7154 -0.7408
   98POPC  H14A13008   4.205   7.176   6.719  1.5718  2.0089  0.3467
   98POPC  H14B13009   4.278   7.293   6.615 -1.7681 -0.0223  0.2862
   98POPC  H14C13010   4.153   7.189   6.564 -0.6216  0.7771  0.4102
   98POPC   C1513011   4.304   6.956   6.606  0.1580 -0.0120  0.2999
   98POPC  H15A13012   4.328   6.937   6.710 -1.1120 -0.1699  0.5732
   98POPC  H15B13013   4.366   6.891   6.545  0.1452  0.6494 -0.4337
   98POPC  H15C13014   4.201   6.927   6.594  0.5217 -0.7885 -1.3669
   98POPC   C1113015   4.488   7.034   6.363 -0.2894  0.6861 -0.6086
   98POPC  H11A13016   4.585   7.084   6.384 -1.2480  2.8246 -1.0008
   98POPC  H11B13017   4.479   7.063   6.256 -0.4714  2.3848 -0.1720
   98POPC     P13018   4.419   6.793   6.304  0.2788 -0.0411  0.1878
   98POPC   O1313019   4.276   6.817   6.329 -0.7647  0.0616 -0.8295
   98POPC   O1413020   4.471   6.661   6.336 -0.5067  0.4067 -0.1928
   98POPC   O1213021   4.501   6.895   6.394 -0.0202 -0.1346  0.1616
   98POPC   O1113022   4.449   6.833   6.151  0.9606  0.6502  0.2373
   98POPC    C113023   4.583   6.833   6.108 -0.1109 -0.0819 -0.1654
   98POPC    HA13024   4.651   6.758   6.155  0.2575 -1.0897 -2.1796
   98POPC    HB13025   4.627   6.935   6.114 -0.8560  0.2604 -0.4378
   98POPC    C213026   4.590   6.791   5.952  0.6851  1.4749 -0.1002
   98POPC    HS13027   4.698   6.786   5.924  0.5503 -1.8722 -0.4514
   98POPC   O2113028   4.510   6.877   5.870 -0.6989 -0.5294 -0.2265
   98POPC   C2113029   4.570   6.915   5.755  0.5871 -0.2367 -0.4536
   98POPC   O2213030   4.666   6.858   5.701 -0.3126  0.6213 -0.5671
   98POPC   C2213031   4.471   7.017   5.685 -0.0946 -0.0073  0.0555
   98POPC   H2R13032   4.455   7.108   5.747 -1.8168 -0.3505  0.1619
   98POPC   H2S13033   4.376   6.961   5.676 -0.0036 -0.4841  1.6553
   98POPC    C313034   4.548   6.647   5.930  0.3473  0.1136 -0.0702
   98POPC    HX13035   4.450   6.627   5.978  0.6526 -1.3559 -0.0015
   98POPC    HY13036   4.624   6.588   5.985 -0.1420 -0.6127 -0.1539
   98POPC   O3113037   4.553   6.614   5.793  0.4004 -0.3942  0.1700
   98POPC   C3113038   4.466   6.526   5.747 -0.6072  0.3039 -0.6633
   98POPC   O3213039   4.388   6.465   5.817 -0.0047 -0.3921  0.6659
   98POPC   C3213040   4.458   6.528   5.595 -0.0915 -0.3485  0.7355
   98POPC   H2X13041   4.357   6.488   5.573 -0.0681  0.0721 -0.1548
   98POPC   H2Y13042   4.539   6.461   5.559  1.5266  1.5143  0.6942
   98POPC   C2313043   4.528   7.054   5.543 -0.7330  0.2762 -0.7797
   98POPC   H3R13044   4.508   6.971   5.473  1.5755 -0.8717 -0.1667
   98POPC   H3S13045   4.639   7.057   5.546 -0.6102  3.2152 -3.0658
   98POPC   C2413046   4.471   7.181   5.488  0.8964 -0.2944 -0.0486
   98POPC   H4R13047   4.481   7.266   5.559  0.7229  2.2006 -2.8433
   98POPC   H4S13048   4.361   7.165   5.483  0.5845  1.6931 -0.5543
   98POPC   C2513049   4.524   7.213   5.347  0.1191 -0.7616 -0.1986
   98POPC   H5R13050   4.490   7.126   5.287 -1.9930  0.3388 -0.6920
   98POPC   H5S13051   4.634   7.233   5.350 -0.2031  1.2126 -0.7170
   98POPC   C2613052   4.461   7.344   5.291  0.3279  0.2368 -0.2622
   98POPC   H6R13053   4.511   7.428   5.345 -0.4531  1.8380 -1.9154
   98POPC   H6S13054   4.352   7.343   5.310  0.2203 -0.5099 -0.8539
   98POPC   C2713055   4.498   7.347   5.141 -0.0079 -0.1334 -0.0850
   98POPC   H7R13056   4.464   7.259   5.082  3.2101 -1.2196 -0.5186
   98POPC   H7S13057   4.608   7.332   5.135  0.1644  1.2862 -1.1228
   98POPC   C2813058   4.462   7.470   5.059 -0.0781  0.8596 -0.3068
   98POPC   H8R13059   4.535   7.465   4.975  0.7754 -0.2289  0.4803
   98POPC   H8S13060   4.492   7.553   5.127 -2.5170  0.0812  1.8832
   98POPC   C2913061   4.324   7.487   5.011  0.6244 -0.4429 -0.1815
   98POPC   H9113062   4.249   7.446   5.081  0.9507  0.1918  0.5514
   98POPC  C21013063   4.278   7.571   4.917  0.3739  0.6015  0.4534
   98POPC  H10113064   4.170   7.571   4.897  0.0708 -1.7736  1.7580
   98POPC  C21113065   4.357   7.665   4.827  0.0831  0.2556 -0.3830
   98POPC  H11R13066   4.453   7.621   4.791  0.2220 -1.1790  1.6308
   98POPC  H11S13067   4.370   7.762   4.879 -1.4026  0.5106 -0.4357
   98POPC  C21213068   4.281   7.697   4.695 -0.2385  0.9957 -0.7304
   98POPC  H12R13069   4.170   7.693   4.702 -0.5012 -0.4533 -3.9487
   98POPC  H12S13070   4.303   7.621   4.617  0.4123  1.0297 -0.5861
   98POPC  C21313071   4.325   7.835   4.640  0.2215 -0.2080  0.5866
   98POPC  H13R13072   4.435   7.827   4.629  0.1753 -0.2675  0.1362
   98POPC  H13S13073   4.311   7.910   4.721  1.4149 -0.8648  1.4133
   98POPC  C21413074   4.269   7.876   4.508 -0.1193 -0.3018  0.0911
   98POPC  H14R13075   4.162   7.849   4.495  0.3459 -1.4885 -1.6224
   98POPC  H14S13076   4.331   7.838   4.424 -0.7723 -0.7515 -0.1974
   98POPC  C21513077   4.257   8.032   4.494  0.2271  0.0072 -0.5172
   98POPC  H15R13078   4.356   8.072   4.525  0.9098 -0.8696 -1.4810
   98POPC  H15S13079   4.181   8.064   4.568  0.9877 -0.9894  0.7497
   98POPC  C21613080   4.220   8.081   4.353 -0.1774  0.6833 -0.3830
   98POPC  H16R13081   4.307   8.071   4.284  0.6164  0.7563  0.6003
   98POPC  H16S13082   4.203   8.190   4.361  0.8429  0.9642 -1.6001
   98POPC  C21713083   4.093   8.015   4.294 -0.5150 -0.5978 -0.0218
   98POPC  H17R13084   4.009   8.051   4.356  0.7327  4.9095 -0.9611
   98POPC  H17S13085   4.108   7.905   4.301 -2.2483 -0.7387  2.6076
   98POPC  C21813086   4.052   8.070   4.161  0.5680  1.0217 -0.0438
   98POPC  H18R13087   4.136   8.054   4.091  1.7151  3.2241  0.7155
   98POPC  H18S13088   4.049   8.179   4.182 -0.5344  0.9106  0.4558
   98POPC  H18T13089   3.951   8.034   4.133  1.6686 -1.8629 -0.6648
   98POPC   C3313090   4.472   6.669   5.533 -0.3621 -0.6633  0.2766
   98POPC   H3X13091   4.574   6.711   5.529 -1.1048  1.2259  0.1175
   98POPC   H3Y13092   4.408   6.734   5.597  0.3744  1.9410 -1.5112
   98POPC   C3413093   4.410   6.696   5.393 -0.5373  0.8544 -0.6433
   98POPC   H4X13094   4.434   6.799   5.360  3.5854  0.3888  0.3700
   98POPC   H4Y13095   4.299   6.694   5.395 -0.6419  0.3955 -3.0857
   98POPC   C3513096   4.465   6.608   5.275 -0.4916 -0.0285  0.3382
   98POPC   H5X13097   4.438   6.501   5.291 -1.1758 -0.1987 -1.6297
   98POPC   H5Y13098   4.575   6.626   5.269 -0.1414 -2.3499 -3.0826
   98POPC   C3613099   4.416   6.667   5.140  0.1291  0.0645  0.3214
   98POPC   H6X13100   4.471   6.763   5.130  0.8326 -0.1954  1.5516
   98POPC   H6Y13101   4.306   6.686   5.140  0.1758  0.3660 -0.5376
   98POPC   C3713102   4.471   6.572   5.023  0.5829 -0.6696 -0.2172
   98POPC   H7X13103   4.425   6.473   5.041  1.0222 -0.9673 -0.7182
   98POPC   H7Y13104   4.582   6.561   5.025  0.4919 -1.5287  0.1996
   98POPC   C3813105   4.432   6.641   4.892 -0.6839  0.6001 -0.2975
   98POPC   H8X13106   4.503   6.724   4.872  1.1333 -1.3603 -2.5564
   98POPC   H8Y13107   4.334   6.691   4.906 -1.6133 -1.6931  2.2788
   98POPC   C3913108   4.434   6.545   4.778 -0.3294  0.2166 -0.4757
   98POPC   H9X13109   4.368   6.459   4.803 -0.2922  0.1979 -0.4427
   98POPC   H9Y13110   4.538   6.505   4.776 -0.9775 -1.6319  0.9323
   98POPC  C31013111   4.394   6.604   4.638  0.0029 -0.5143 -0.2928
   98POPC  H10X13112   4.445   6.702   4.623 -2.1816  0.8793  0.9366
   98POPC  H10Y13113   4.283   6.610   4.633 -0.0976 -1.6157  0.2445
   98POPC  C31113114   4.440   6.520   4.518 -0.0965  0.8082  0.4963
   98POPC  H11X13115   4.393   6.419   4.517  0.1366  0.6988 -0.7427
   98POPC  H11Y13116   4.550   6.511   4.534 -0.1713  0.3197  0.7968
   98POPC  C31213117   4.421   6.594   4.383 -0.9029  0.1154  0.3364
   98POPC  H12X13118   4.468   6.694   4.386  2.9883 -1.5613  1.6946
   98POPC  H12Y13119   4.311   6.591   4.365 -0.7606 -1.3078 -0.4166
   98POPC  C31313120   4.488   6.526   4.264 -0.2571 -1.1629 -0.0627
   98POPC  H13X13121   4.480   6.600   4.182 -0.2300 -0.3713  0.6292
   98POPC  H13Y13122   4.433   6.434   4.236  0.5320 -1.3064 -1.1821
   98POPC  C31413123   4.640   6.498   4.285 -0.7964 -0.0726 -0.3751
   98POPC  H14X13124   4.660   6.416   4.358 -1.3720  0.6671  0.6276
   98POPC  H14Y13125   4.679   6.588   4.338  0.9855 -1.5928  1.0707
   98POPC  C31513126   4.707   6.477   4.149  0.1595 -0.0515 -0.0792
   98POPC  H15X13127   4.689   6.555   4.071  0.8129 -2.3057 -2.6519
   98POPC  H15Y13128   4.663   6.386   4.103 -0.9619  1.6218 -2.5972
   98POPC  C31613129   4.864   6.472   4.146  0.2295 -0.1664 -0.0325
   98POPC  H16X13130   4.899   6.381   4.198 -0.3609  0.2867  1.1923
   98POPC  H16Y13131   4.910   6.568   4.178 -1.1788  0.3586  0.4962
   98POPC  H16Z13132   4.881   6.459   4.037 -0.8188 -1.0770 -0.1091
   99POPC     N13133   1.699   2.525   5.824 -0.2720 -0.3311  0.2159
   99POPC   C1213134   1.640   2.513   5.683 -0.0490 -0.4392  0.3446
   99POPC  H12A13135   1.730   2.490   5.628  0.4260  0.6291  0.6518
   99POPC  H12B13136   1.610   2.606   5.636  2.7925 -0.1891 -1.2097
   99POPC   C1313137   1.800   2.634   5.831  0.9957 -0.2370 -0.4259
   99POPC  H13A13138   1.886   2.621   5.767  1.2203  1.2828 -0.4652
   99POPC  H13B13139   1.756   2.723   5.788 -0.6755 -1.0966 -0.5704
   99POPC  H13C13140   1.835   2.639   5.933  1.5731  1.8130 -0.6787
   99POPC   C1413141   1.586   2.548   5.922  0.6113 -0.5067  0.2533
   99POPC  H14A13142   1.512   2.470   5.925  0.3236 -0.2400  0.2003
   99POPC  H14B13143   1.620   2.550   6.025  0.9145  1.5002  0.1545
   99POPC  H14C13144   1.548   2.648   5.903 -0.8243 -0.9571  0.6326
   99POPC   C1513145   1.766   2.391   5.850  0.5747  0.4571  0.2138
   99POPC  H15A13146   1.790   2.383   5.955  1.7976 -0.3413 -0.1061
   99POPC  H15B13147   1.862   2.381   5.801  1.5815 -0.2333  2.1857
   99POPC  H15C13148   1.700   2.313   5.816 -0.6715  1.3810  0.4552
   99POPC   C1113149   1.533   2.397   5.645 -1.3004  0.2046 -0.7361
   99POPC  H11A13150   1.500   2.414   5.541 -2.6311  1.1980 -0.1842
   99POPC  H11B13151   1.444   2.413   5.711 -1.1827  0.7631 -0.7139
   99POPC     P13152   1.521   2.138   5.627  0.0481  0.7028 -0.1756
   99POPC   O1313153   1.375   2.154   5.629  0.6282 -0.0572 -0.0812
   99POPC   O1413154   1.581   2.029   5.711 -0.1538  0.0970 -0.4138
   99POPC   O1213155   1.594   2.271   5.657  0.3170 -0.0733 -0.0562
   99POPC   O1113156   1.574   2.116   5.477 -0.6417  0.3287 -0.4373
   99POPC    C113157   1.713   2.079   5.446  0.7850 -0.4953 -0.0665
   99POPC    HA13158   1.725   2.029   5.347  1.0282  2.9419 -1.9101
   99POPC    HB13159   1.750   2.008   5.523 -0.9577  0.4118  1.6727
   99POPC    C213160   1.799   2.202   5.426 -1.0961  0.4910 -0.2854
   99POPC    HS13161   1.799   2.257   5.523 -0.6963  0.4123 -0.2397
   99POPC   O2113162   1.742   2.285   5.326 -0.2229  0.1786  0.1075
   99POPC   C2113163   1.763   2.414   5.321 -0.1698 -0.3034 -0.4151
   99POPC   O2213164   1.810   2.477   5.415  0.7653  0.5484 -0.1398
   99POPC   C2213165   1.728   2.473   5.184  0.0168  0.4924 -0.8471
   99POPC   H2R13166   1.618   2.488   5.188 -0.5390 -2.8301  2.6465
   99POPC   H2S13167   1.745   2.390   5.112 -1.0251 -1.4082  1.0097
   99POPC    C313168   1.957   2.166   5.406 -0.2493  0.4382  0.0055
   99POPC    HX13169   1.990   2.102   5.491  0.4674 -3.0921 -2.6813
   99POPC    HY13170   2.011   2.263   5.403  0.4376  0.0577 -0.0174
   99POPC   O3113171   1.985   2.087   5.291  0.5788 -0.5645  0.3300
   99POPC   C3113172   2.038   2.156   5.189  0.4665  0.0715  0.3485
   99POPC   O3213173   2.059   2.277   5.187 -0.4522 -0.3856 -0.1409
   99POPC   C3213174   2.070   2.057   5.072  0.5349 -0.0648 -0.6148
   99POPC   H2X13175   1.974   2.024   5.027  1.0765 -0.0936 -1.7877
   99POPC   H2Y13176   2.135   1.979   5.119  0.8872  0.1520 -0.7366
   99POPC   C2313177   1.832   2.586   5.142  0.7219  0.6674 -0.1662
   99POPC   H3R13178   1.935   2.543   5.146 -0.1532 -1.4868  1.1453
   99POPC   H3S13179   1.826   2.661   5.223  0.1131 -1.4698  1.8849
   99POPC   C2413180   1.800   2.643   5.005 -0.0705  0.2109  0.2070
   99POPC   H4R13181   1.721   2.719   5.023  0.3388  1.2518 -2.0147
   99POPC   H4S13182   1.750   2.568   4.940 -1.4396  2.2107 -1.1469
   99POPC   C2513183   1.922   2.701   4.930 -0.6400 -0.1027  0.2916
   99POPC   H5R13184   2.001   2.625   4.946  0.4776  1.1573  0.9498
   99POPC   H5S13185   1.948   2.800   4.973 -0.4291 -0.8743  2.0264
   99POPC   C2613186   1.883   2.718   4.781  0.1721 -0.3040 -0.2264
   99POPC   H6R13187   1.791   2.778   4.767 -0.6851 -1.3610  0.6534
   99POPC   H6S13188   1.845   2.619   4.750 -0.8612  0.2914 -0.8908
   99POPC   C2713189   1.995   2.762   4.691  0.1352  0.5562 -1.1767
   99POPC   H7R13190   2.088   2.719   4.735 -1.5366 -0.9882  1.0746
   99POPC   H7S13191   2.012   2.871   4.710  1.5858 -0.0678  1.5546
   99POPC   C2813192   1.983   2.727   4.541  0.2048 -0.3688 -0.1418
   99POPC   H8R13193   1.980   2.617   4.532 -0.6422 -0.3459 -0.2249
   99POPC   H8S13194   2.067   2.766   4.479 -0.3591 -2.8778 -2.6802
   99POPC   C2913195   1.854   2.791   4.483 -0.7418 -0.5837  0.3073
   99POPC   H9113196   1.847   2.899   4.503 -1.9187 -0.5399 -0.2437
   99POPC  C21013197   1.756   2.740   4.407  0.0416 -0.1543  0.5566
   99POPC  H10113198   1.686   2.814   4.367  0.9818 -0.0753 -1.0165
   99POPC  C21113199   1.733   2.603   4.362  0.7000 -0.9140  0.1800
   99POPC  H11R13200   1.816   2.533   4.383 -0.3553 -2.0904  0.5183
   99POPC  H11S13201   1.711   2.604   4.253  0.6059 -0.5657  0.2002
   99POPC  C21213202   1.609   2.561   4.432  0.2151  0.0492  0.2677
   99POPC  H12R13203   1.523   2.627   4.456 -1.1497 -1.4012 -0.4711
   99POPC  H12S13204   1.626   2.524   4.536 -0.4970  0.0814  0.4033
   99POPC  C21313205   1.561   2.433   4.368 -0.5470 -0.1277 -0.9117
   99POPC  H13R13206   1.503   2.363   4.431  1.2409 -2.1691 -1.4266
   99POPC  H13S13207   1.656   2.382   4.343  0.6790  0.6411  1.8798
   99POPC  C21413208   1.455   2.451   4.255 -0.7399 -1.1136  0.4885
   99POPC  H14R13209   1.503   2.502   4.168 -1.4839  1.1706  1.3444
   99POPC  H14S13210   1.380   2.526   4.289 -0.7456 -0.3968 -1.0109
   99POPC  C21513211   1.384   2.320   4.208 -0.5904 -0.0597 -0.2769
   99POPC  H15R13212   1.297   2.344   4.142 -1.0636 -0.1757  0.2904
   99POPC  H15S13213   1.352   2.270   4.302  1.0499 -0.1961  0.2342
   99POPC  C21613214   1.481   2.229   4.129  0.4597  1.3739 -0.3202
   99POPC  H16R13215   1.583   2.243   4.171  0.1649 -0.7774  1.2987
   99POPC  H16S13216   1.501   2.260   4.024  1.6185 -0.6676 -0.7643
   99POPC  C21713217   1.458   2.077   4.146  0.1270 -0.3261  0.5116
   99POPC  H17R13218   1.493   2.036   4.242  1.0069  0.2710  0.4594
   99POPC  H17S13219   1.520   2.020   4.074  0.4208 -0.1975  0.6625
   99POPC  C21813220   1.310   2.046   4.124  0.2875  0.3474  0.3736
   99POPC  H18R13221   1.234   2.107   4.177  1.6787  3.1216 -0.6125
   99POPC  H18S13222   1.284   1.938   4.131  0.4821 -0.1480 -3.7636
   99POPC  H18T13223   1.292   2.064   4.016  1.4305 -2.7223 -0.4549
   99POPC   C3313224   2.148   2.121   4.958  0.6197  0.1725  0.2331
   99POPC   H3X13225   2.192   2.036   4.902  0.3602  0.9451 -1.1760
   99POPC   H3Y13226   2.232   2.188   4.985  1.6027 -1.2806  0.9299
   99POPC   C3413227   2.051   2.201   4.868  0.7074 -0.6704  0.5098
   99POPC   H4X13228   1.988   2.269   4.929 -3.9983 -2.8982 -1.3677
   99POPC   H4Y13229   1.978   2.124   4.833 -1.2558  1.3675 -0.1241
   99POPC   C3513230   2.107   2.276   4.744  0.3172  0.2941  0.3723
   99POPC   H5X13231   2.146   2.197   4.676  1.8003  2.3259 -1.2451
   99POPC   H5Y13232   2.191   2.346   4.764 -0.5387  2.1950 -2.1097
   99POPC   C3613233   1.998   2.344   4.663 -0.0022 -0.4424  0.9432
   99POPC   H6X13234   2.047   2.395   4.577 -0.7422  0.0833  0.8281
   99POPC   H6Y13235   1.958   2.433   4.714 -0.5480 -0.4389  0.5252
   99POPC   C3713236   1.887   2.248   4.611 -0.7023 -0.6714  0.3924
   99POPC   H7X13237   1.805   2.314   4.578  1.3089  3.0520  2.2082
   99POPC   H7Y13238   1.848   2.184   4.693  1.4288 -2.6996 -0.0460
   99POPC   C3813239   1.946   2.168   4.494  0.5012  0.6241  0.3677
   99POPC   H8X13240   2.038   2.111   4.520  1.8889  1.4486 -2.3366
   99POPC   H8Y13241   1.980   2.244   4.420 -1.6629  1.0013 -0.2890
   99POPC   C3913242   1.847   2.073   4.435 -0.2303 -0.3392  0.3008
   99POPC   H9X13243   1.767   2.137   4.391  1.3984  0.8769 -1.0199
   99POPC   H9Y13244   1.796   1.998   4.500 -3.5022  0.8212 -0.7007
   99POPC  C31013245   1.904   1.995   4.310 -0.3634 -0.8806  0.2364
   99POPC  H10X13246   1.995   1.938   4.337 -0.4128 -0.5393  1.1420
   99POPC  H10Y13247   1.923   2.066   4.226 -1.7544 -2.0790 -1.1752
   99POPC  C31113248   1.786   1.918   4.252 -0.1442  0.2868  0.8164
   99POPC  H11X13249   1.700   1.988   4.245 -2.9857 -2.9357  1.2731
   99POPC  H11Y13250   1.751   1.851   4.334  1.6191 -0.3213  1.1148
   99POPC  C31213251   1.826   1.834   4.125 -0.0135  0.1384 -0.3216
   99POPC  H12X13252   1.742   1.764   4.108 -1.9997  1.5371  2.8288
   99POPC  H12Y13253   1.921   1.785   4.156  0.2379  1.3273  0.9194
   99POPC  C31313254   1.851   1.928   4.004  0.2195  0.3637 -0.3982
   99POPC  H13X13255   1.912   2.017   4.032 -0.9745  0.2676  2.9533
   99POPC  H13Y13256   1.749   1.961   3.977 -0.6922 -0.8142  1.3677
   99POPC  C31413257   1.917   1.850   3.891 -0.3059  0.2684  0.3027
   99POPC  H14X13258   2.016   1.806   3.918  0.5507  2.2981  0.6439
   99POPC  H14Y13259   1.936   1.916   3.804 -1.6160  0.0558 -0.1661
   99POPC  C31513260   1.838   1.722   3.835 -0.5296 -0.4663 -0.7203
   99POPC  H15X13261   1.732   1.755   3.849  0.3488  1.6300  1.7492
   99POPC  H15Y13262   1.853   1.644   3.912 -3.2245 -1.7841 -1.3957
   99POPC  C31613263   1.887   1.683   3.693 -0.4898 -0.6222  0.2872
   99POPC  H16X13264   1.972   1.748   3.665 -1.0249 -0.0953 -0.1529
   99POPC  H16Y13265   1.813   1.703   3.612  2.5734 -1.7219 -3.0899
   99POPC  H16Z13266   1.910   1.575   3.683 -2.8830 -1.2170  0.6188
  100POPC     N13267   0.537   2.362   5.942  0.0175 -0.3100  0.1027
  100POPC   C1213268   0.530   2.509   5.899 -0.7115 -0.3511 -0.2344
  100POPC  H12A13269   0.627   2.550   5.872 -0.2422 -1.0274  0.3879
  100POPC  H12B13270   0.506   2.568   5.986  2.3357  0.9952 -0.1460
  100POPC   C1313271   0.638   2.335   6.054  0.0137  0.0223  0.2016
  100POPC  H13A13272   0.638   2.230   6.081 -0.8273  0.0010  0.1290
  100POPC  H13B13273   0.735   2.359   6.013  0.6719 -0.2766  1.5136
  100POPC  H13C13274   0.623   2.401   6.138 -1.2398  0.0073  0.0042
  100POPC   C1413275   0.405   2.328   6.006  0.3955 -0.1578  0.0848
  100POPC  H14A13276   0.373   2.386   6.091 -0.8459 -0.6679 -0.0132
  100POPC  H14B13277   0.320   2.342   5.941  1.1367  1.8702 -0.5498
  100POPC  H14C13278   0.415   2.223   6.029  0.4056 -0.2967 -0.5384
  100POPC   C1513279   0.570   2.274   5.827  0.0369  0.3453  0.0417
  100POPC  H15A13280   0.563   2.171   5.859 -1.7533  0.9942  1.9506
  100POPC  H15B13281   0.671   2.283   5.790  0.0606 -0.6809 -0.1816
  100POPC  H15C13282   0.502   2.286   5.744  1.9131 -1.4178 -1.8881
  100POPC   C1113283   0.430   2.551   5.784  0.0409  0.1107 -0.4592
  100POPC  H11A13284   0.453   2.483   5.700 -0.5122 -1.8479  0.8958
  100POPC  H11B13285   0.442   2.654   5.745  0.6826  1.3295  2.6258
  100POPC     P13286   0.216   2.622   5.930  0.0872  0.7009  0.3508
  100POPC   O1313287   0.305   2.729   5.978 -0.0009 -0.0134 -0.1711
  100POPC   O1413288   0.151   2.530   6.025  0.2774  0.0286  0.3921
  100POPC   O1213289   0.295   2.532   5.824  0.0798  0.0753 -0.0918
  100POPC   O1113290   0.111   2.683   5.838  0.6493  0.2878 -0.0802
  100POPC    C113291   0.009   2.612   5.765 -0.3455  0.6413 -0.2313
  100POPC    HA13292  -0.084   2.602   5.825 -0.6789  1.9190 -0.5203
  100POPC    HB13293   0.042   2.508   5.743 -1.2040  0.2763  0.1507
  100POPC    C213294  -0.010   2.659   5.621  0.5732 -0.5583  1.0732
  100POPC    HS13295  -0.075   2.588   5.565  2.1917 -2.0568  1.0227
  100POPC   O2113296   0.112   2.679   5.551  0.3916  0.5464  0.5150
  100POPC   C2113297   0.184   2.573   5.520 -0.1154 -0.4380  0.4439
  100POPC   O2213298   0.154   2.458   5.543  0.5086 -0.0943 -0.2610
  100POPC   C2213299   0.296   2.615   5.418  0.3389 -0.0346  0.8734
  100POPC   H2R13300   0.377   2.538   5.417  0.9176  0.5685  0.4504
  100POPC   H2S13301   0.346   2.710   5.445  0.6489  0.0113  0.1796
  100POPC    C313302  -0.093   2.794   5.623  0.5861 -0.9225  0.8732
  100POPC    HX13303  -0.026   2.879   5.645  0.0856 -0.8391  2.1809
  100POPC    HY13304  -0.170   2.784   5.703 -0.4430  1.2517  0.2470
  100POPC   O3113305  -0.174   2.807   5.501  0.2799  0.2612 -0.1630
  100POPC   C3113306  -0.116   2.866   5.405 -0.3719  0.3681  0.7174
  100POPC   O3213307  -0.007   2.926   5.413  0.3712  0.0332 -0.2630
  100POPC   C3213308  -0.197   2.867   5.281 -0.7573  0.1430 -0.1354
  100POPC   H2X13309  -0.181   2.968   5.237  0.1008  0.0583 -0.0269
  100POPC   H2Y13310  -0.306   2.865   5.307 -0.1677  0.0119  2.6657
  100POPC   C2313311   0.245   2.652   5.271  0.0147 -1.0286 -0.1623
  100POPC   H3R13312   0.168   2.726   5.301  0.0802  0.0225 -2.3798
  100POPC   H3S13313   0.203   2.563   5.221  0.2294 -0.9313 -0.5173
  100POPC   C2413314   0.341   2.727   5.180  0.2154 -0.6010  0.3750
  100POPC   H4R13315   0.420   2.655   5.148  0.1707 -0.3355 -0.3545
  100POPC   H4S13316   0.387   2.814   5.232 -0.6146  0.1639 -0.1359
  100POPC   C2513317   0.267   2.784   5.056 -0.0307  1.1255  0.1930
  100POPC   H5R13318   0.218   2.703   4.998  0.6635  0.0207  1.1262
  100POPC   H5S13319   0.335   2.829   4.980 -0.9458  1.7556 -0.2722
  100POPC   C2613320   0.167   2.900   5.066  0.1035 -0.1661 -0.6734
  100POPC   H6R13321   0.214   2.994   5.102 -0.2221 -0.4672  0.5708
  100POPC   H6S13322   0.088   2.887   5.143  0.6596  0.3485 -0.0053
  100POPC   C2713323   0.104   2.942   4.927  0.2749 -0.0356 -0.8669
  100POPC   H7R13324   0.036   2.859   4.896 -0.9637  0.9190 -0.7684
  100POPC   H7S13325   0.181   2.951   4.847  1.0924 -1.7568 -0.3169
  100POPC   C2813326   0.021   3.069   4.941 -0.5392  0.0544 -0.5064
  100POPC   H8R13327  -0.037   3.067   5.036  0.6730 -0.1264  0.2363
  100POPC   H8S13328  -0.058   3.074   4.863 -2.2682  1.6224  1.2099
  100POPC   C2913329   0.112   3.186   4.927 -0.0007  0.1296 -0.2714
  100POPC   H9113330   0.174   3.199   5.017 -0.3516 -0.9054  0.1321
  100POPC  C21013331   0.105   3.279   4.826 -0.4410 -0.6452 -0.4492
  100POPC  H10113332   0.164   3.372   4.839 -1.3692 -0.1283  0.1370
  100POPC  C21113333   0.005   3.280   4.709 -0.0134  0.5647  0.1126
  100POPC  H11R13334  -0.090   3.332   4.731  0.3623  1.0576  0.5939
  100POPC  H11S13335  -0.004   3.173   4.679 -0.8137  0.4337  0.7666
  100POPC  C21213336   0.059   3.350   4.582 -0.1707 -0.2604 -0.0931
  100POPC  H12R13337  -0.025   3.340   4.510  0.4026  0.0344 -0.8144
  100POPC  H12S13338   0.150   3.292   4.554  1.6218  1.9909  0.7685
  100POPC  C21313339   0.084   3.504   4.601  0.1456  0.4646 -0.1761
  100POPC  H13R13340   0.156   3.522   4.684  1.5045  1.9860 -1.6089
  100POPC  H13S13341  -0.014   3.544   4.634  0.9351  1.0079  1.6830
  100POPC  C21413342   0.153   3.555   4.476 -0.2885  0.7900  0.4395
  100POPC  H14R13343   0.101   3.522   4.383  1.7710  2.0458 -1.2549
  100POPC  H14S13344   0.253   3.506   4.472 -0.6754  0.0180 -0.3365
  100POPC  C21513345   0.186   3.705   4.470  0.5473 -0.4811  0.2456
  100POPC  H15R13346   0.268   3.739   4.538 -0.4686  0.4295  1.0569
  100POPC  H15S13347   0.088   3.743   4.507  0.8885 -0.0348  0.7153
  100POPC  C21613348   0.206   3.763   4.325  0.4673 -0.2849 -0.1258
  100POPC  H16R13349   0.126   3.714   4.265 -0.1024  0.0950  0.3057
  100POPC  H16S13350   0.302   3.720   4.288  1.7809  2.6577 -0.3912
  100POPC  C21713351   0.207   3.920   4.325 -0.1107  0.4719 -0.0499
  100POPC  H17R13352   0.293   3.956   4.386 -0.1341  1.7696 -0.7682
  100POPC  H17S13353   0.115   3.953   4.377 -0.3169  0.7573 -0.5972
  100POPC  C21813354   0.216   3.979   4.188 -0.8461  0.1785  0.7034
  100POPC  H18R13355   0.138   3.943   4.117  1.6362 -1.8022 -1.1995
  100POPC  H18S13356   0.313   3.954   4.141 -1.0053  0.7811  0.0313
  100POPC  H18T13357   0.201   4.089   4.194 -0.1385  0.3334 -0.1634
  100POPC   C3313358  -0.152   2.756   5.182 -0.4491 -0.1523 -0.0089
  100POPC   H3X13359  -0.191   2.658   5.217  0.7442 -1.6841 -2.6950
  100POPC   H3Y13360  -0.042   2.744   5.173 -0.2230  1.2543  0.6022
  100POPC   C3413361  -0.211   2.778   5.039 -0.5124 -0.0088 -0.2024
  100POPC   H4X13362  -0.163   2.869   4.996  0.7331 -0.3301  0.4460
  100POPC   H4Y13363  -0.319   2.799   5.029 -0.4759  1.5073  1.9586
  100POPC   C3513364  -0.166   2.654   4.953  0.0371 -0.0200 -0.8667
  100POPC   H5X13365  -0.214   2.571   5.010  0.4918 -0.4539 -1.1222
  100POPC   H5Y13366  -0.056   2.650   4.948  0.0561  0.0611 -0.5370
  100POPC   C3613367  -0.218   2.661   4.807 -0.2600  0.3232 -0.0344
  100POPC   H6X13368  -0.189   2.762   4.770  1.9556 -0.5355 -0.8369
  100POPC   H6Y13369  -0.328   2.647   4.804 -0.0357 -2.3736  1.2890
  100POPC   C3713370  -0.157   2.555   4.716 -0.2312  0.2635 -0.4786
  100POPC   H7X13371  -0.050   2.584   4.708  0.3721 -1.2857  1.3504
  100POPC   H7Y13372  -0.215   2.552   4.621 -0.3414 -0.4767 -0.3966
  100POPC   C3813373  -0.150   2.416   4.782 -0.1461  0.2182 -0.7156
  100POPC   H8X13374  -0.250   2.397   4.825  0.2645 -0.4077  0.0006
  100POPC   H8Y13375  -0.088   2.422   4.874 -3.5596  0.8230  1.7205
  100POPC   C3913376  -0.081   2.308   4.694  0.3047 -0.2788 -0.4167
  100POPC   H9X13377  -0.033   2.230   4.757 -1.4508 -1.6589 -0.7157
  100POPC   H9Y13378  -0.009   2.360   4.626  1.8052  1.6362  2.4389
  100POPC  C31013379  -0.183   2.225   4.611  1.0430 -0.4602 -0.0551
  100POPC  H10X13380  -0.238   2.282   4.534  2.4532  1.5525  0.3725
  100POPC  H10Y13381  -0.247   2.155   4.670  1.5948 -0.9952 -0.0714
  100POPC  C31113382  -0.107   2.137   4.510  0.2678  0.2438  0.4250
  100POPC  H11X13383  -0.037   2.071   4.565  2.3624  2.5752  0.7156
  100POPC  H11Y13384  -0.063   2.202   4.431 -0.5178 -1.0528 -1.1663
  100POPC  C31213385  -0.206   2.052   4.441  0.7791 -0.1239  0.2854
  100POPC  H12X13386  -0.295   2.109   4.407  0.3050 -0.8151  0.3536
  100POPC  H12Y13387  -0.248   1.988   4.521  0.2339 -0.3492 -0.1753
  100POPC  C31313388  -0.145   1.979   4.319 -0.2415  0.7931  0.4406
  100POPC  H13X13389  -0.059   1.913   4.343 -0.8804  0.2922  1.4225
  100POPC  H13Y13390  -0.128   2.052   4.237  0.0196  1.1020  0.7675
  100POPC  C31413391  -0.241   1.882   4.251 -0.4105  0.2736 -0.0008
  100POPC  H14X13392  -0.192   1.832   4.165  0.3401  0.7446  0.1382
  100POPC  H14Y13393  -0.323   1.952   4.222 -1.1050 -0.3124  0.5187
  100POPC  C31513394  -0.296   1.784   4.344 -0.0914  0.0871 -0.2107
  100POPC  H15X13395  -0.351   1.820   4.434 -1.3953  1.1923 -1.3998
  100POPC  H15Y13396  -0.211   1.729   4.388 -0.8852  0.4853  1.9435
  100POPC  C31613397  -0.387   1.698   4.266 -0.4849  0.6999 -0.4664
  100POPC  H16X13398  -0.426   1.609   4.320  0.5977  0.5000  0.0110
  100POPC  H16Y13399  -0.332   1.672   4.173  1.8299 -1.1028  1.2656
  100POPC  H16Z13400  -0.476   1.746   4.221 -1.2759 -1.5467 -1.4712
  101POPC     N13401   3.607   2.706   1.611 -0.4101 -0.3790 -0.1897
  101POPC   C1213402   3.564   2.708   1.760  0.1906 -0.1595  0.0784
  101POPC  H12A13403   3.485   2.779   1.776  0.5686  0.6262 -1.3237
  101POPC  H12B13404   3.649   2.751   1.811 -0.1503  0.6925 -0.0510
  101POPC   C1313405   3.644   2.847   1.568  0.3476 -0.2621  0.1091
  101POPC  H13A13406   3.553   2.905   1.573  0.6524  0.2758 -0.5475
  101POPC  H13B13407   3.730   2.890   1.618 -0.3333  2.3036 -0.7702
  101POPC  H13C13408   3.663   2.855   1.462 -2.5037  0.8909 -0.4038
  101POPC   C1413409   3.724   2.620   1.579 -0.0457 -0.0183 -0.0209
  101POPC  H14A13410   3.805   2.648   1.646 -0.8881 -0.5526  1.2507
  101POPC  H14B13411   3.711   2.513   1.575  1.5896 -0.2865  0.8457
  101POPC  H14C13412   3.747   2.625   1.474 -0.3446  0.3160 -0.0724
  101POPC   C1513413   3.490   2.679   1.524  0.1091 -0.2794  1.0669
  101POPC  H15A13414   3.442   2.585   1.549 -2.6792  0.7041 -0.1829
  101POPC  H15B13415   3.509   2.696   1.419 -2.3964  3.4440  1.0180
  101POPC  H15C13416   3.406   2.743   1.548  0.9323  0.2367  2.6802
  101POPC   C1113417   3.515   2.581   1.822  0.3950  0.0826 -0.3416
  101POPC  H11A13418   3.520   2.594   1.932  1.1484 -1.7421 -0.1266
  101POPC  H11B13419   3.585   2.497   1.800 -1.8225 -2.4718  1.7134
  101POPC     P13420   3.260   2.594   1.833 -0.0357  0.1716  0.2792
  101POPC   O1313421   3.147   2.550   1.751 -0.3528  0.4664  0.5852
  101POPC   O1413422   3.269   2.737   1.859  0.4007  0.4342  0.0900
  101POPC   O1213423   3.392   2.540   1.766  0.2267  0.1584 -0.1558
  101POPC   O1113424   3.244   2.531   1.974  0.1906  0.3396 -0.5657
  101POPC    C113425   3.288   2.395   2.004 -0.8080 -0.2468  0.0617
  101POPC    HA13426   3.383   2.386   2.060 -1.4938 -0.9701  1.1652
  101POPC    HB13427   3.294   2.327   1.917  2.0917  0.0778 -0.0823
  101POPC    C213428   3.187   2.340   2.101  0.5505  0.2481  0.2962
  101POPC    HS13429   3.081   2.356   2.073  0.8106  0.2133 -0.7259
  101POPC   O2113430   3.208   2.410   2.225 -0.5661  0.1642 -0.3957
  101POPC   C2113431   3.104   2.409   2.315  0.3762 -0.4073 -0.7749
  101POPC   O2213432   2.995   2.354   2.293 -0.1786 -0.2446  0.0302
  101POPC   C2213433   3.146   2.451   2.462  0.1133  0.3298  0.7507
  101POPC   H2R13434   3.105   2.553   2.475 -0.3246  0.3606 -0.6386
  101POPC   H2S13435   3.257   2.445   2.468  0.4882  3.1875 -1.1579
  101POPC    C313436   3.212   2.189   2.123 -0.0795  0.2344  0.5550
  101POPC    HX13437   3.171   2.144   2.031  0.4755  1.8840 -0.5364
  101POPC    HY13438   3.151   2.155   2.210  1.2366 -3.5672  0.1619
  101POPC   O3113439   3.350   2.153   2.127  0.2342  0.0368  0.5380
  101POPC   C3113440   3.398   2.130   2.246 -0.1921  0.6199  0.5407
  101POPC   O3213441   3.333   2.136   2.347 -0.1943 -0.1636  0.3434
  101POPC   C3213442   3.550   2.098   2.247  0.2672  0.2294  0.5477
  101POPC   H2X13443   3.608   2.193   2.255 -0.2542  0.5427  0.6509
  101POPC   H2Y13444   3.572   2.046   2.151  1.1767  0.6276  0.5263
  101POPC   C2313445   3.067   2.367   2.561 -0.2251  0.1393  0.7903
  101POPC   H3R13446   3.108   2.266   2.541  2.7501  1.7171 -2.0413
  101POPC   H3S13447   2.959   2.374   2.534 -0.1420 -0.5901  0.2391
  101POPC   C2413448   3.092   2.400   2.701  0.8864  0.0344 -0.2756
  101POPC   H4R13449   3.068   2.508   2.712 -1.6760 -0.3450 -1.3931
  101POPC   H4S13450   3.200   2.377   2.716  1.4627  0.7986 -2.6792
  101POPC   C2513451   3.001   2.326   2.795 -0.8105  0.0451  0.3412
  101POPC   H5R13452   3.023   2.218   2.776 -0.9969  0.2031 -0.8512
  101POPC   H5S13453   2.897   2.340   2.759  0.0019 -0.5399 -2.4810
  101POPC   C2613454   3.013   2.366   2.943  0.1458  0.0228  0.1963
  101POPC   H6R13455   2.988   2.474   2.945 -0.0394  0.1259 -2.8737
  101POPC   H6S13456   3.114   2.355   2.988  0.5503  0.1341 -0.6783
  101POPC   C2713457   2.908   2.287   3.024  0.1335 -0.2737 -0.4580
  101POPC   H7R13458   2.923   2.181   2.993  0.2238 -0.6507  0.7982
  101POPC   H7S13459   2.802   2.306   2.997 -0.1738  0.5010  1.1426
  101POPC   C2813460   2.919   2.302   3.176  0.2991 -0.0978 -0.1378
  101POPC   H8R13461   2.864   2.395   3.204  1.7785  1.1335 -1.1758
  101POPC   H8S13462   3.027   2.316   3.196  0.0429 -1.1340  2.3973
  101POPC   C2913463   2.867   2.180   3.243 -0.2018  0.4050 -0.1661
  101POPC   H9113464   2.762   2.192   3.276 -0.4436 -0.8358 -0.4183
  101POPC  C21013465   2.930   2.056   3.263 -0.8199  0.1728 -0.3152
  101POPC  H10113466   2.877   1.975   3.317 -1.6529  1.6942  1.2758
  101POPC  C21113467   3.066   2.023   3.218 -0.2421 -0.0914 -0.4556
  101POPC  H11R13468   3.103   2.108   3.156 -0.7212 -1.3612 -2.6066
  101POPC  H11S13469   3.046   1.938   3.148  1.5798 -1.0868  0.1616
  101POPC  C21213470   3.168   1.991   3.327  0.3508  0.1529 -0.3723
  101POPC  H12R13471   3.271   1.969   3.290  0.1915 -0.3197 -0.5393
  101POPC  H12S13472   3.127   1.900   3.376 -0.7959  0.5756 -0.5188
  101POPC  C21313473   3.187   2.109   3.415  0.4871  0.5722 -0.0729
  101POPC  H13R13474   3.090   2.131   3.466  1.0430 -0.1000  1.2999
  101POPC  H13S13475   3.222   2.194   3.353  0.9425 -0.4751 -1.2920
  101POPC  C21413476   3.286   2.097   3.536  0.2728 -0.5048  0.0645
  101POPC  H14R13477   3.295   2.199   3.579 -0.4501 -1.1026  1.6887
  101POPC  H14S13478   3.388   2.080   3.495 -0.1269 -0.7653 -0.8434
  101POPC  C21513479   3.243   2.005   3.649 -0.1760  0.4072 -0.1729
  101POPC  H15R13480   3.218   1.907   3.602 -1.2360  1.8862 -2.9315
  101POPC  H15S13481   3.152   2.035   3.705 -1.3291 -0.9173 -1.2742
  101POPC  C21613482   3.358   1.994   3.752 -0.0529  0.2320  0.6703
  101POPC  H16R13483   3.363   2.090   3.808  0.7263  0.6391 -0.0551
  101POPC  H16S13484   3.455   1.979   3.700 -0.8510  1.4720 -1.3007
  101POPC  C21713485   3.344   1.876   3.846 -0.6580 -0.4790  0.3918
  101POPC  H17R13486   3.434   1.871   3.910 -1.1718  0.4488  1.2094
  101POPC  H17S13487   3.330   1.792   3.774  0.7590  0.9382 -1.6600
  101POPC  C21813488   3.229   1.898   3.949 -0.2048  0.1198 -0.4001
  101POPC  H18R13489   3.127   1.893   3.905 -2.1801  0.3250  3.7340
  101POPC  H18S13490   3.228   2.000   3.992  0.7608 -0.7047  1.7012
  101POPC  H18T13491   3.231   1.828   4.035 -3.1270  1.7764  1.1686
  101POPC   C3313492   3.593   2.004   2.364 -0.5018 -0.1258  0.1289
  101POPC   H3X13493   3.689   1.953   2.339 -1.1744 -1.1348 -0.4654
  101POPC   H3Y13494   3.514   1.929   2.385  0.2516 -0.5994  1.3684
  101POPC   C3413495   3.617   2.064   2.506  0.3471  0.2279  0.1285
  101POPC   H4X13496   3.614   1.987   2.586  1.7772 -0.7294 -0.7012
  101POPC   H4Y13497   3.531   2.132   2.528 -0.3014 -0.8217  0.9066
  101POPC   C3513498   3.744   2.149   2.522  0.4583 -0.5481 -0.2678
  101POPC   H5X13499   3.717   2.253   2.494  0.7253 -1.0726 -2.6879
  101POPC   H5Y13500   3.824   2.109   2.456 -0.7672 -0.2733 -1.9581
  101POPC   C3613501   3.798   2.152   2.666 -0.3047  0.0197 -0.0742
  101POPC   H6X13502   3.710   2.173   2.730 -0.3354 -2.4420  0.8077
  101POPC   H6Y13503   3.872   2.235   2.671  1.0247 -1.1218 -0.1870
  101POPC   C3713504   3.878   2.020   2.706 -0.2742  0.8814  0.1875
  101POPC   H7X13505   3.984   2.042   2.683 -0.1138 -1.0054 -1.1194
  101POPC   H7Y13506   3.844   1.935   2.643  0.6429 -0.3520  1.3352
  101POPC   C3813507   3.852   1.975   2.854 -0.0847  0.3929 -0.1329
  101POPC   H8X13508   3.742   1.975   2.866  0.0043 -1.6485  1.0302
  101POPC   H8Y13509   3.899   2.055   2.916  0.1431  0.9547 -1.0092
  101POPC   C3913510   3.899   1.834   2.869  0.0005  0.5382 -0.2717
  101POPC   H9X13511   4.009   1.834   2.858  0.0301  4.1399 -0.9500
  101POPC   H9Y13512   3.854   1.769   2.791  0.7730 -1.5685  0.9420
  101POPC  C31013513   3.869   1.787   3.013  0.2896  0.2724 -0.1095
  101POPC  H10X13514   3.932   1.843   3.086  0.9475  0.4471 -0.7998
  101POPC  H10Y13515   3.890   1.678   3.021 -0.2300  0.1686 -0.1537
  101POPC  C31113516   3.724   1.809   3.063 -0.0885 -0.0214  1.0341
  101POPC  H11X13517   3.652   1.801   2.979  0.6794 -1.5168  0.4906
  101POPC  H11Y13518   3.714   1.913   3.101 -2.5430  0.3520 -0.4064
  101POPC  C31213519   3.690   1.719   3.182  0.4436 -1.0830 -0.6486
  101POPC  H12X13520   3.764   1.756   3.256  1.4683 -1.1042 -1.6348
  101POPC  H12Y13521   3.710   1.611   3.165  0.9037 -1.1141  0.0704
  101POPC  C31313522   3.558   1.752   3.255  0.1859 -0.0604  0.5443
  101POPC  H13X13523   3.481   1.726   3.179  1.0198 -1.1850  0.0484
  101POPC  H13Y13524   3.549   1.861   3.275 -0.7974  0.4020 -2.0718
  101POPC  C31413525   3.544   1.670   3.377 -0.1992 -0.2587 -0.3907
  101POPC  H14X13526   3.601   1.723   3.456 -1.1748  1.2279 -0.6506
  101POPC  H14Y13527   3.590   1.571   3.356 -1.5751 -0.7766 -1.0977
  101POPC  C31513528   3.398   1.679   3.424  0.3207 -0.2524 -0.6421
  101POPC  H15X13529   3.329   1.652   3.342 -0.5117 -1.0910  0.3068
  101POPC  H15Y13530   3.368   1.775   3.470 -0.3021  0.2521 -2.0531
  101POPC  C31613531   3.388   1.574   3.534  0.0683 -1.0437  0.2916
  101POPC  H16X13532   3.416   1.470   3.509  4.1559 -1.4612  5.0106
  101POPC  H16Y13533   3.288   1.578   3.583  0.1309 -0.1045  0.3522
  101POPC  H16Z13534   3.466   1.593   3.611 -2.5238  0.5943  2.7174
  102POPC     N13535   5.903   2.555   2.200 -0.2179 -0.0736  0.2899
  102POPC   C1213536   5.995   2.662   2.262 -0.0069 -0.0602  0.3868
  102POPC  H12A13537   6.082   2.604   2.291  0.5209 -0.1917 -1.3461
  102POPC  H12B13538   5.942   2.698   2.349  0.5680 -1.5021  1.3711
  102POPC   C1313539   5.962   2.507   2.076 -0.1132  0.9956  0.2387
  102POPC  H13A13540   5.899   2.432   2.032  0.6186  0.8977 -0.6559
  102POPC  H13B13541   5.965   2.583   1.999 -2.8156  2.6183  1.5716
  102POPC  H13C13542   6.060   2.464   2.088 -1.0600 -0.7577  2.5699
  102POPC   C1413543   5.896   2.440   2.295  0.0374  0.3248  0.0987
  102POPC  H14A13544   5.834   2.475   2.377 -1.1138  0.0268 -0.6154
  102POPC  H14B13545   5.839   2.359   2.251  0.2252 -0.0675  0.5768
  102POPC  H14C13546   5.983   2.395   2.340  0.9604 -0.4547 -2.2981
  102POPC   C1513547   5.760   2.614   2.174  0.5575 -0.0036  0.7519
  102POPC  H15A13548   5.713   2.646   2.266  0.0092  0.4271  0.3270
  102POPC  H15B13549   5.710   2.529   2.131  0.5680  0.2326  0.2711
  102POPC  H15C13550   5.765   2.699   2.107  1.8504  0.1121  0.9637
  102POPC   C1113551   6.035   2.785   2.174 -0.4454  0.1563 -0.4154
  102POPC  H11A13552   6.093   2.858   2.234 -1.5212  1.3332 -0.7744
  102POPC  H11B13553   5.944   2.846   2.153  0.1111  1.5238  0.9959
  102POPC     P13554   6.260   2.743   2.058  0.3256 -0.3202 -0.0566
  102POPC   O1313555   6.311   2.884   2.056  0.4141  0.0437  0.7085
  102POPC   O1413556   6.298   2.649   1.951 -0.0868  0.3968 -0.1184
  102POPC   O1213557   6.102   2.745   2.056  0.3280 -0.5285 -0.2753
  102POPC   O1113558   6.276   2.677   2.196 -0.1339  0.1092 -0.2940
  102POPC    C113559   6.320   2.550   2.224  0.1487  0.4991  0.7694
  102POPC    HA13560   6.403   2.514   2.160 -1.2094 -2.3636  0.4268
  102POPC    HB13561   6.237   2.480   2.199  1.1609 -0.4338 -0.0689
  102POPC    C213562   6.357   2.531   2.366  0.7626 -0.1624 -0.2433
  102POPC    HS13563   6.392   2.428   2.386  0.3794 -0.5845 -1.6469
  102POPC   O2113564   6.236   2.557   2.443 -0.1623 -0.0220  0.2415
  102POPC   C2113565   6.235   2.508   2.563 -0.0001 -0.7305 -0.6928
  102POPC   O2213566   6.316   2.439   2.620 -0.2364 -0.2079 -0.9736
  102POPC   C2213567   6.103   2.548   2.625  0.2114  0.1469 -0.3566
  102POPC   H2R13568   6.027   2.485   2.573 -1.9942  0.9838  1.6500
  102POPC   H2S13569   6.067   2.650   2.599  2.3728  0.7398 -1.2451
  102POPC    C313570   6.474   2.625   2.398  0.2173 -0.0125 -0.5547
  102POPC    HX13571   6.433   2.727   2.391  1.7945  1.0211  2.9169
  102POPC    HY13572   6.558   2.623   2.326 -0.6851  1.5438 -1.7009
  102POPC   O3113573   6.512   2.606   2.534 -0.3193 -0.1437  0.1486
  102POPC   C3113574   6.600   2.507   2.557  0.3454  0.2127 -0.3240
  102POPC   O3213575   6.635   2.423   2.472 -0.2416  0.7914  0.4705
  102POPC   C3213576   6.640   2.498   2.707  0.4475 -0.4192  0.3683
  102POPC   H2X13577   6.549   2.493   2.770 -0.0667  0.3251 -0.2997
  102POPC   H2Y13578   6.672   2.599   2.740 -3.9034  1.0964  0.4962
  102POPC   C2313579   6.090   2.510   2.779 -0.5641  0.4143  0.2972
  102POPC   H3R13580   6.136   2.412   2.805 -3.4164 -0.4621  2.5697
  102POPC   H3S13581   5.983   2.496   2.804 -0.4881 -1.2755 -0.1699
  102POPC   C2413582   6.152   2.623   2.862  0.5483  0.1444 -0.6654
  102POPC   H4R13583   6.080   2.708   2.854 -0.0255  0.1181  2.6349
  102POPC   H4S13584   6.252   2.659   2.831  0.1493  2.5193  0.5297
  102POPC   C2513585   6.158   2.593   3.020 -0.3867 -0.5750 -0.1714
  102POPC   H5R13586   6.197   2.490   3.038 -1.5890 -0.8736  0.8654
  102POPC   H5S13587   6.052   2.599   3.053  0.1056  0.8399  1.2912
  102POPC   C2613588   6.240   2.693   3.106 -0.4393  0.4490  0.7152
  102POPC   H6R13589   6.210   2.792   3.065  0.4771 -0.1713 -1.6067
  102POPC   H6S13590   6.348   2.692   3.079 -0.5943 -3.1456 -0.2833
  102POPC   C2713591   6.205   2.670   3.252 -0.0943 -0.9153 -0.8126
  102POPC   H7R13592   6.215   2.560   3.267 -1.5960 -0.9920 -0.1881
  102POPC   H7S13593   6.098   2.690   3.274  0.2917 -0.2745  0.5340
  102POPC   C2813594   6.281   2.757   3.360  0.0574  0.4101  0.2166
  102POPC   H8R13595   6.389   2.740   3.341  0.2144  0.7773  0.7578
  102POPC   H8S13596   6.262   2.713   3.460  0.8270  1.6779  0.9419
  102POPC   C2913597   6.256   2.906   3.363  0.4335 -0.1829  0.0109
  102POPC   H9113598   6.297   2.965   3.280  0.5978 -0.8746 -0.4088
  102POPC  C21013599   6.180   2.963   3.456  1.2415  0.0782 -0.1024
  102POPC  H10113600   6.158   3.070   3.444 -0.8380 -0.5049 -2.3607
  102POPC  C21113601   6.107   2.893   3.568  0.4193 -0.0332 -0.1620
  102POPC  H11R13602   6.173   2.904   3.657  1.0019  1.2983 -0.7278
  102POPC  H11S13603   6.101   2.785   3.545  3.1436 -0.2873  0.0317
  102POPC  C21213604   5.959   2.943   3.593  0.0905  0.7083 -0.4244
  102POPC  H12R13605   5.893   2.871   3.648  0.4047  0.1686 -0.7440
  102POPC  H12S13606   5.910   2.939   3.493 -0.6450 -2.3058 -0.0511
  102POPC  C21313607   5.934   3.078   3.658 -0.1285  0.0271 -0.4781
  102POPC  H13R13608   5.825   3.082   3.679  0.4266 -0.2705  3.1364
  102POPC  H13S13609   5.975   3.156   3.590 -1.1443 -0.8098 -2.0987
  102POPC  C21413610   6.003   3.105   3.791 -0.5118 -0.9980 -0.5354
  102POPC  H14R13611   6.113   3.090   3.787 -0.2525  0.7341 -0.6603
  102POPC  H14S13612   5.949   3.037   3.861 -2.0749  0.5675 -0.1356
  102POPC  C21513613   5.985   3.246   3.848 -0.2329  0.4448 -0.5014
  102POPC  H15R13614   6.010   3.238   3.956  1.6767  0.1859 -0.9161
  102POPC  H15S13615   5.879   3.276   3.837 -1.0581 -2.6668 -2.5284
  102POPC  C21613616   6.073   3.349   3.792 -0.4464  0.1138  0.5856
  102POPC  H16R13617   6.062   3.354   3.682 -0.7104 -3.1842  0.3562
  102POPC  H16S13618   6.178   3.316   3.811 -0.4870 -0.9520 -0.8531
  102POPC  C21713619   6.044   3.490   3.846 -0.0582 -0.2474 -0.0287
  102POPC  H17R13620   6.122   3.557   3.802 -0.4712  0.7227  0.6813
  102POPC  H17S13621   6.063   3.500   3.955  1.4091  4.3181 -0.4994
  102POPC  C21813622   5.909   3.543   3.803 -0.6836  0.0577  0.3819
  102POPC  H18R13623   5.826   3.473   3.828  0.9511 -1.5943  1.3968
  102POPC  H18S13624   5.899   3.557   3.693  3.4897  0.0943 -0.1246
  102POPC  H18T13625   5.886   3.638   3.856  2.4439 -0.7188  3.4979
  102POPC   C3313626   6.756   2.400   2.737  0.3662  0.6153  0.1920
  102POPC   H3X13627   6.828   2.409   2.653  1.8952  3.0587  1.6591
  102POPC   H3Y13628   6.711   2.298   2.734 -0.5886  0.9560  1.8287
  102POPC   C3413629   6.823   2.404   2.871  0.2301 -0.2192  0.0706
  102POPC   H4X13630   6.879   2.500   2.871 -0.7243  0.3582  0.8086
  102POPC   H4Y13631   6.897   2.321   2.880  0.8998  0.2992 -0.5351
  102POPC   C3513632   6.728   2.404   2.989  0.2813  0.1341  0.5754
  102POPC   H5X13633   6.693   2.509   3.005 -1.2385 -0.2833  0.1690
  102POPC   H5Y13634   6.786   2.377   3.079  2.1353  1.0748 -0.2844
  102POPC   C3613635   6.612   2.300   2.998  0.0184 -0.4391 -0.1675
  102POPC   H6X13636   6.652   2.215   3.058 -0.7345  0.2362  1.3379
  102POPC   H6Y13637   6.607   2.265   2.892  0.6195 -0.3317 -0.2375
  102POPC   C3713638   6.488   2.360   3.067  0.0518  0.0374 -0.5586
  102POPC   H7X13639   6.403   2.292   3.045  1.6697 -1.1598 -3.8027
  102POPC   H7Y13640   6.467   2.457   3.016  1.7968  0.5110 -0.4437
  102POPC   C3813641   6.502   2.390   3.222  0.4384 -0.3133  0.8280
  102POPC   H8X13642   6.406   2.427   3.263  0.3405  1.9342 -1.1823
  102POPC   H8Y13643   6.569   2.476   3.242 -0.2626  0.2114  0.9682
  102POPC   C3913644   6.533   2.257   3.295  0.2150 -0.5535  0.0017
  102POPC   H9X13645   6.626   2.201   3.270  0.3473 -0.9094  1.2291
  102POPC   H9Y13646   6.456   2.183   3.265  0.6817 -2.4802  3.2119
  102POPC  C31013647   6.528   2.263   3.443 -0.3155 -0.1795 -0.1939
  102POPC  H10X13648   6.427   2.291   3.478 -0.3738 -1.6385  0.9097
  102POPC  H10Y13649   6.592   2.348   3.474 -0.3779 -0.7058  1.4582
  102POPC  C31113650   6.572   2.129   3.498 -0.3774 -0.4113 -0.1555
  102POPC  H11X13651   6.679   2.109   3.477 -0.3845 -1.4397  0.6986
  102POPC  H11Y13652   6.515   2.046   3.451 -1.5678 -0.2725  0.9924
  102POPC  C31213653   6.542   2.131   3.651 -0.2168  0.4456 -0.5916
  102POPC  H12X13654   6.542   2.024   3.682 -2.3756  0.4360 -0.5240
  102POPC  H12Y13655   6.440   2.171   3.665  0.5690  1.6462  2.5204
  102POPC  C31313656   6.633   2.216   3.735 -0.3857  1.2005  0.1474
  102POPC  H13X13657   6.566   2.242   3.820 -0.7702 -1.6187  0.8263
  102POPC  H13Y13658   6.652   2.303   3.669  1.8680  2.5856  2.4064
  102POPC  C31413659   6.768   2.139   3.773 -0.5158 -0.3773 -0.0183
  102POPC  H14X13660   6.790   2.075   3.686 -1.6100 -1.6451  0.6056
  102POPC  H14Y13661   6.741   2.068   3.854  1.6390 -2.5706 -1.1201
  102POPC  C31513662   6.881   2.228   3.820 -0.7475 -0.1138 -0.5658
  102POPC  H15X13663   6.848   2.281   3.912 -0.4601  2.4576 -1.8672
  102POPC  H15Y13664   6.904   2.313   3.753 -0.9097  0.7259  0.4187
  102POPC  C31613665   7.013   2.146   3.822 -0.5770  0.2056  0.4697
  102POPC  H16X13666   7.092   2.196   3.881 -0.4095 -0.2295  0.6182
  102POPC  H16Y13667   7.050   2.124   3.720  0.4726 -1.0603  1.0955
  102POPC  H16Z13668   6.988   2.048   3.869 -0.9271  0.1029  0.0771
  103POPC     N13669   6.861   1.165   2.295 -0.2531 -0.7341 -0.4500
  103POPC   C1213670   6.827   1.064   2.191  0.9711 -0.8023  0.4322
  103POPC  H12A13671   6.914   1.006   2.164  0.9223 -0.6924  0.0332
  103POPC  H12B13672   6.796   1.117   2.102 -0.1033  1.4847  2.0791
  103POPC   C1313673   6.923   1.112   2.422  0.0545 -0.1971  0.2775
  103POPC  H13A13674   7.021   1.076   2.397  1.0015  2.5777 -0.4343
  103POPC  H13B13675   6.935   1.189   2.497  2.0175  1.9552 -2.0477
  103POPC  H13C13676   6.862   1.034   2.465 -1.5135 -0.1757 -1.7507
  103POPC   C1413677   6.971   1.252   2.239  0.1996 -0.7267  0.5859
  103POPC  H14A13678   7.055   1.193   2.205  1.8716  0.0467  3.1452
  103POPC  H14B13679   6.930   1.321   2.166 -0.2530 -0.3921  1.1445
  103POPC  H14C13680   7.011   1.310   2.321 -2.0241 -1.2710  2.1611
  103POPC   C1513681   6.744   1.248   2.326  0.0682  0.1842 -0.2634
  103POPC  H15A13682   6.698   1.280   2.233  2.0361  1.6736 -0.7987
  103POPC  H15B13683   6.767   1.334   2.388  1.0668 -1.0317  1.1215
  103POPC  H15C13684   6.677   1.184   2.382 -0.4983  1.0131  0.0257
  103POPC   C1113685   6.710   0.966   2.218 -0.0321 -0.1955 -0.2872
  103POPC  H11A13686   6.680   0.919   2.122 -0.9455 -0.5569  0.1577
  103POPC  H11B13687   6.616   1.017   2.247  2.0245  2.6404  2.0002
  103POPC     P13688   6.651   0.766   2.368 -0.4356 -0.2558 -0.0082
  103POPC   O1313689   6.730   0.674   2.453  0.2228  0.2629  0.9047
  103POPC   O1413690   6.571   0.703   2.259 -0.1633 -0.3791  0.8156
  103POPC   O1213691   6.756   0.874   2.312  0.4655 -0.4675  0.1262
  103POPC   O1113692   6.563   0.852   2.458  0.5969  0.2478 -1.1109
  103POPC    C113693   6.503   0.832   2.583  0.2051  0.0555  0.4947
  103POPC    HA13694   6.541   0.742   2.636 -0.9724 -1.6348 -1.3750
  103POPC    HB13695   6.393   0.823   2.566  0.7441 -1.8848 -2.8655
  103POPC    C213696   6.527   0.959   2.664  0.4993  0.2598 -0.4265
  103POPC    HS13697   6.636   0.956   2.687  0.7125 -2.8211 -1.2776
  103POPC   O2113698   6.433   0.959   2.775 -1.0069  0.1611 -0.3655
  103POPC   C2113699   6.474   0.885   2.873  0.2133  0.6820  0.6729
  103POPC   O2213700   6.583   0.837   2.880  0.1918  0.1724 -0.3395
  103POPC   C2213701   6.376   0.901   2.987  0.2078  0.2364 -0.3649
  103POPC   H2R13702   6.330   1.000   3.007  0.1895  0.0639  0.5039
  103POPC   H2S13703   6.430   0.875   3.081 -2.2405 -1.6151  0.6332
  103POPC    C313704   6.501   1.087   2.578  0.3475  0.7976 -0.1192
  103POPC    HX13705   6.392   1.079   2.557  0.6031 -0.7832 -1.0311
  103POPC    HY13706   6.559   1.082   2.483  0.3419  2.5696 -0.2357
  103POPC   O3113707   6.528   1.207   2.650  0.0242 -0.1681 -0.7500
  103POPC   C3113708   6.420   1.282   2.681 -0.7063 -0.4159  1.4202
  103POPC   O3213709   6.300   1.261   2.658  0.4243 -0.0363 -0.0594
  103POPC   C3213710   6.470   1.416   2.736  0.3041  0.0471 -0.0474
  103POPC   H2X13711   6.471   1.490   2.652 -0.3166  0.9796  0.7425
  103POPC   H2Y13712   6.575   1.398   2.767  0.0566  0.2994  0.9479
  103POPC   C2313713   6.271   0.793   2.982 -0.4554  1.2752 -0.5586
  103POPC   H3R13714   6.206   0.803   3.071  0.5654 -2.0119  0.6845
  103POPC   H3S13715   6.318   0.694   2.992 -1.8112  0.7375  1.0583
  103POPC   C2413716   6.174   0.808   2.856  0.1674  0.0912 -0.1219
  103POPC   H4R13717   6.094   0.730   2.855  2.9867 -2.9986 -0.8651
  103POPC   H4S13718   6.225   0.767   2.766 -0.2824 -2.5165  0.7264
  103POPC   C2513719   6.120   0.949   2.826  0.3432 -0.2107  0.3858
  103POPC   H5R13720   6.067   0.932   2.730 -0.8323 -1.5264  1.2369
  103POPC   H5S13721   6.204   1.022   2.823  1.1870 -1.1961 -0.6830
  103POPC   C2613722   6.007   0.986   2.921 -0.2748 -0.0455 -0.5075
  103POPC   H6R13723   6.064   0.992   3.017  2.9777  0.3877 -2.3408
  103POPC   H6S13724   5.947   0.893   2.929  1.8939 -1.5435 -0.8069
  103POPC   C2713725   5.929   1.115   2.892  0.1218 -0.2621  0.2361
  103POPC   H7R13726   5.886   1.104   2.790  2.3688  2.6552 -1.1703
  103POPC   H7S13727   6.001   1.199   2.897  0.5683 -0.7000  1.7574
  103POPC   C2813728   5.813   1.136   2.997  0.3813  0.1108  0.1954
  103POPC   H8R13729   5.768   1.235   2.976 -0.2419  0.0229  1.0308
  103POPC   H8S13730   5.855   1.155   3.099  0.5342  1.5649 -0.1227
  103POPC   C2913731   5.707   1.029   2.988  0.1407 -0.4007 -0.0770
  103POPC   H9113732   5.664   1.003   2.890 -1.2610 -0.2808  0.4760
  103POPC  C21013733   5.653   0.959   3.092  0.3274 -0.0973 -0.2813
  103POPC  H10113734   5.574   0.884   3.078 -1.9971  2.2313 -0.3688
  103POPC  C21113735   5.688   0.977   3.242  0.1205 -0.0801  0.1474
  103POPC  H11R13736   5.799   0.969   3.243  0.1527 -0.4692 -1.7844
  103POPC  H11S13737   5.654   0.880   3.286  0.7387 -0.2226  0.3206
  103POPC  C21213738   5.621   1.091   3.316  0.6572 -0.1037 -0.3725
  103POPC  H12R13739   5.663   1.185   3.274  2.3606 -0.0986  1.2316
  103POPC  H12S13740   5.642   1.087   3.425  1.8927 -0.3553 -0.6105
  103POPC  C21313741   5.465   1.103   3.296 -0.3035 -0.3969 -0.1615
  103POPC  H13R13742   5.445   1.127   3.189 -0.6560  0.4394  0.0841
  103POPC  H13S13743   5.449   1.199   3.349 -2.8725  0.9718 -3.1087
  103POPC  C21413744   5.391   0.977   3.340 -0.6063  0.8185  0.4539
  103POPC  H14R13745   5.405   0.897   3.265 -1.6996  1.7964 -0.8390
  103POPC  H14S13746   5.283   1.003   3.332 -1.2716 -1.6937  0.4269
  103POPC  C21513747   5.413   0.928   3.481  0.5335 -0.2714 -0.2692
  103POPC  H15R13748   5.521   0.899   3.484  0.0532 -2.1511  1.8218
  103POPC  H15S13749   5.361   0.830   3.491  0.9504 -0.3148  2.0882
  103POPC  C21613750   5.372   1.027   3.593 -0.6493  0.2069  0.0991
  103POPC  H16R13751   5.264   1.049   3.580 -0.7277 -0.0931  0.2477
  103POPC  H16S13752   5.414   1.126   3.565 -0.4071  0.8764  2.6192
  103POPC  C21713753   5.430   1.005   3.736  0.1673  0.0809  0.1192
  103POPC  H17R13754   5.371   1.076   3.799 -1.0014 -0.0561 -0.7873
  103POPC  H17S13755   5.538   1.030   3.741  0.6337 -1.9782  1.5660
  103POPC  C21813756   5.423   0.866   3.788 -0.3904  0.1218 -0.1019
  103POPC  H18R13757   5.318   0.830   3.785  0.6365 -3.1510 -0.9370
  103POPC  H18S13758   5.463   0.857   3.891  1.6921  0.6413 -0.8181
  103POPC  H18T13759   5.492   0.794   3.738 -0.2546  0.2711 -0.1280
  103POPC   C3313760   6.374   1.471   2.851 -0.3075  0.2778  0.5849
  103POPC   H3X13761   6.272   1.488   2.812  0.0554  0.7950 -0.1849
  103POPC   H3Y13762   6.415   1.574   2.860  2.5824 -0.6767 -0.4748
  103POPC   C3413763   6.378   1.382   2.974 -0.2636 -0.8483 -0.8059
  103POPC   H4X13764   6.474   1.326   2.976 -0.8284 -1.8351  1.2290
  103POPC   H4Y13765   6.290   1.313   2.968 -0.8235 -0.1045 -1.3764
  103POPC   C3513766   6.376   1.463   3.108 -0.0041 -0.1856 -0.7792
  103POPC   H5X13767   6.354   1.383   3.181  1.6049 -0.7409 -0.8735
  103POPC   H5Y13768   6.284   1.526   3.106  0.0550 -0.1049 -1.6931
  103POPC   C3613769   6.505   1.532   3.140 -0.8806 -0.2328  0.3766
  103POPC   H6X13770   6.538   1.584   3.047 -0.5666  1.6447  1.4903
  103POPC   H6Y13771   6.577   1.456   3.176 -0.0908  0.5043  0.3832
  103POPC   C3713772   6.484   1.647   3.242  0.0040  0.6844  0.2540
  103POPC   H7X13773   6.388   1.690   3.204 -0.5044 -0.4025  0.2805
  103POPC   H7Y13774   6.573   1.713   3.234  0.6936 -0.2466  0.1862
  103POPC   C3813775   6.474   1.591   3.389 -0.1452 -0.2957  0.7186
  103POPC   H8X13776   6.575   1.549   3.411  0.5818  0.6218 -0.6972
  103POPC   H8Y13777   6.407   1.503   3.382 -1.2300  0.6382 -2.4827
  103POPC   C3913778   6.414   1.697   3.479  0.3328  0.2180 -0.2489
  103POPC   H9X13779   6.331   1.751   3.430 -2.3174 -0.1073  3.4823
  103POPC   H9Y13780   6.487   1.773   3.515 -0.7138  0.6391  1.0564
  103POPC  C31013781   6.347   1.640   3.605 -0.4958 -0.6725  0.7463
  103POPC  H10X13782   6.420   1.564   3.640 -0.0569 -1.2930 -1.3739
  103POPC  H10Y13783   6.254   1.588   3.574  0.2340 -2.3555  1.2695
  103POPC  C31113784   6.307   1.749   3.699 -0.0219  0.2475 -0.5347
  103POPC  H11X13785   6.231   1.819   3.659  0.7423  0.5155 -1.5663
  103POPC  H11Y13786   6.400   1.803   3.729  2.7784 -3.7878 -1.1455
  103POPC  C31213787   6.246   1.696   3.834 -0.1269  0.0704  0.9307
  103POPC  H12X13788   6.315   1.625   3.885  1.8191  0.5145 -0.9216
  103POPC  H12Y13789   6.147   1.655   3.808 -0.0335  0.5040 -0.1592
  103POPC  C31313790   6.228   1.816   3.925  0.1044 -0.3758  0.4450
  103POPC  H13X13791   6.159   1.800   4.011 -1.3546  1.3823 -0.3357
  103POPC  H13Y13792   6.180   1.894   3.863 -1.0224  0.0325  1.7670
  103POPC  C31413793   6.362   1.861   3.992  0.2403 -0.0325 -0.5250
  103POPC  H14X13794   6.432   1.911   3.921 -0.0950  2.2213  0.6542
  103POPC  H14Y13795   6.414   1.778   4.046  0.0039  0.6675  0.8242
  103POPC  C31513796   6.346   1.995   4.080  0.2677  0.2909  0.3319
  103POPC  H15X13797   6.312   1.957   4.179  1.1740 -2.3729 -0.3024
  103POPC  H15Y13798   6.275   2.066   4.031 -0.6332 -0.7537  0.0945
  103POPC  C31613799   6.471   2.096   4.094  0.8913 -0.6392  0.0310
  103POPC  H16X13800   6.450   2.184   4.157  3.6626 -0.4784  0.8510
  103POPC  H16Y13801   6.488   2.142   3.994  2.0633  0.4907  0.7189
  103POPC  H16Z13802   6.558   2.035   4.128  0.0825 -0.7119  2.0629
  104POPC     N13803   2.498   5.148   2.174 -0.0476 -0.0635  0.0101
  104POPC   C1213804   2.497   5.007   2.125 -0.1458  0.8647 -0.2152
  104POPC  H12A13805   2.534   5.016   2.024  2.0211  0.3840  0.4953
  104POPC  H12B13806   2.397   4.967   2.115 -1.3460  2.6931  2.8884
  104POPC   C1313807   2.376   5.217   2.126  0.1547 -0.4503  0.7012
  104POPC  H13A13808   2.293   5.148   2.117 -1.6777  1.6794  0.3751
  104POPC  H13B13809   2.348   5.297   2.194  3.5132  1.9386 -0.4458
  104POPC  H13C13810   2.396   5.267   2.032 -0.6123  2.3409  1.9003
  104POPC   C1413811   2.510   5.163   2.319  0.1199  0.1127 -0.1731
  104POPC  H14A13812   2.584   5.098   2.362 -0.2405  0.2189  0.6382
  104POPC  H14B13813   2.545   5.263   2.343 -0.1885  0.6866 -1.9701
  104POPC  H14C13814   2.412   5.156   2.365 -0.1953  0.2545 -0.8111
  104POPC   C1513815   2.611   5.215   2.115  0.4964  0.0523  0.6088
  104POPC  H15A13816   2.623   5.321   2.134 -0.5637  0.3191 -0.0896
  104POPC  H15B13817   2.605   5.206   2.008  0.2830  1.4296  0.4846
  104POPC  H15C13818   2.701   5.164   2.145  0.1845 -0.2189  1.0955
  104POPC   C1113819   2.579   4.897   2.197 -0.4455  0.3264 -0.6387
  104POPC  H11A13820   2.549   4.803   2.146 -1.4012 -0.8921  1.9662
  104POPC  H11B13821   2.549   4.888   2.304 -0.7461  0.9697 -0.6663
  104POPC     P13822   2.797   4.921   2.052 -0.2977 -0.4297 -0.0077
  104POPC   O1313823   2.878   5.042   2.038  0.3509  0.3486  0.5271
  104POPC   O1413824   2.703   4.888   1.945  0.8604 -0.3184  0.1329
  104POPC   O1213825   2.718   4.919   2.195  0.0581 -0.4021  0.0354
  104POPC   O1113826   2.893   4.793   2.063  0.7091 -0.5609 -0.1176
  104POPC    C113827   2.836   4.666   2.099  0.5527 -0.0325 -0.1475
  104POPC    HA13828   2.913   4.595   2.063  2.7657  2.1765 -0.0019
  104POPC    HB13829   2.737   4.645   2.052 -0.1520 -0.1576  1.3196
  104POPC    C213830   2.837   4.635   2.247  0.5129  0.7696 -0.4047
  104POPC    HS13831   2.757   4.693   2.297  0.2012 -0.8726  1.0780
  104POPC   O2113832   2.959   4.676   2.295 -0.2905  0.1477  0.0294
  104POPC   C2113833   2.973   4.720   2.417 -0.2571 -0.0208 -0.1566
  104POPC   O2213834   2.877   4.743   2.489  0.7574 -0.0475  0.1494
  104POPC   C2213835   3.122   4.726   2.463  0.6168  0.1248  0.3955
  104POPC   H2R13836   3.173   4.791   2.388  1.1131 -0.1204  0.5130
  104POPC   H2S13837   3.171   4.626   2.460  1.9089  0.7505 -0.2166
  104POPC    C313838   2.810   4.480   2.275 -0.1323  0.3526  0.0770
  104POPC    HX13839   2.895   4.421   2.233 -1.2748  0.8980 -3.3040
  104POPC    HY13840   2.725   4.452   2.211 -0.7829  1.5211  0.4049
  104POPC   O3113841   2.800   4.454   2.424 -0.0394 -0.0769  0.2034
  104POPC   C3113842   2.677   4.480   2.472 -0.8056  0.2290 -0.1739
  104POPC   O3213843   2.594   4.532   2.404 -0.8545 -0.0320  0.3244
  104POPC   C3213844   2.668   4.437   2.620  0.6580 -0.0740  0.8360
  104POPC   H2X13845   2.636   4.331   2.628  1.0512 -0.1771  1.0634
  104POPC   H2Y13846   2.587   4.492   2.672  1.1255  0.3988  1.0746
  104POPC   C2313847   3.137   4.803   2.593 -0.3632 -0.2646 -1.0289
  104POPC   H3R13848   3.083   4.754   2.677 -0.6735  0.1712 -0.9681
  104POPC   H3S13849   3.089   4.904   2.589  2.2425  1.2908  2.0495
  104POPC   C2413850   3.277   4.822   2.641 -0.4743  0.4179  0.2654
  104POPC   H4R13851   3.339   4.868   2.561  0.6685  0.5209  1.1810
  104POPC   H4S13852   3.318   4.721   2.662 -1.9976 -0.5323 -1.1573
  104POPC   C2513853   3.298   4.908   2.767  0.3250  0.3576  0.2672
  104POPC   H5R13854   3.263   4.853   2.858 -0.8310 -1.1830 -1.0455
  104POPC   H5S13855   3.243   5.004   2.754  0.8742  0.9777  2.0969
  104POPC   C2613856   3.439   4.954   2.793 -0.4102  0.7279 -0.2183
  104POPC   H6R13857   3.475   5.040   2.733  0.5996  1.1721  0.9811
  104POPC   H6S13858   3.510   4.869   2.780 -0.7799  0.4078 -0.1346
  104POPC   C2713859   3.459   4.993   2.940 -0.2306 -0.0178  0.1765
  104POPC   H7R13860   3.412   4.912   3.000 -0.5937 -1.0220 -1.4065
  104POPC   H7S13861   3.398   5.084   2.955  0.6713  0.7221 -0.5677
  104POPC   C2813862   3.603   5.017   2.982 -0.1618  0.5618  0.3003
  104POPC   H8R13863   3.603   5.063   3.083  2.2567  0.5408  0.3747
  104POPC   H8S13864   3.659   5.088   2.918  0.8264 -0.1571  0.3335
  104POPC   C2913865   3.685   4.893   2.997 -0.1271  0.1279 -0.4112
  104POPC   H9113866   3.683   4.827   2.908 -0.8344 -1.3999  0.6880
  104POPC  C21013867   3.775   4.860   3.089  0.2361  0.5427 -0.0114
  104POPC  H10113868   3.814   4.758   3.073 -1.3201  0.1067 -1.2350
  104POPC  C21113869   3.804   4.931   3.216 -0.6072  0.5155 -0.5603
  104POPC  H11R13870   3.780   5.038   3.203  0.6074  1.0228  1.0726
  104POPC  H11S13871   3.910   4.918   3.246 -1.2544  0.5159  1.9803
  104POPC  C21213872   3.718   4.871   3.332 -0.0180  0.2719  0.1437
  104POPC  H12R13873   3.723   4.760   3.333 -0.7520  0.2365  0.3974
  104POPC  H12S13874   3.611   4.895   3.317 -0.5067 -1.5809  0.5265
  104POPC  C21313875   3.765   4.922   3.475  1.0664 -0.3020  0.0573
  104POPC  H13R13876   3.753   5.032   3.488 -3.0047 -0.8962  3.8554
  104POPC  H13S13877   3.873   4.904   3.496  1.1367  1.3090  1.2441
  104POPC  C21413878   3.684   4.851   3.591 -0.9678  0.2208  0.4615
  104POPC  H14R13879   3.693   4.742   3.569 -1.9704  0.2547 -0.1811
  104POPC  H14S13880   3.574   4.864   3.595 -1.0496  0.1654 -1.0269
  104POPC  C21513881   3.748   4.884   3.729 -0.1723 -0.4467 -0.8902
  104POPC  H15R13882   3.723   4.990   3.749 -0.4903 -1.0887  3.1326
  104POPC  H15S13883   3.858   4.879   3.711 -0.3928  0.9602 -2.9429
  104POPC  C21613884   3.687   4.805   3.845  0.1670  0.4585 -0.4931
  104POPC  H16R13885   3.738   4.834   3.939 -0.6212  3.7959 -0.9667
  104POPC  H16S13886   3.705   4.698   3.822  1.1268  0.6929 -0.8965
  104POPC  C21713887   3.540   4.824   3.871 -0.6345 -0.2909  0.2281
  104POPC  H17R13888   3.469   4.811   3.787  0.9127  3.0192 -1.8148
  104POPC  H17S13889   3.526   4.930   3.903 -2.0294 -0.2898 -0.3300
  104POPC  C21813890   3.476   4.732   3.981  0.1973 -0.6543  0.2827
  104POPC  H18R13891   3.365   4.735   3.983  0.1893 -0.7499 -0.0254
  104POPC  H18S13892   3.522   4.752   4.080  0.0170  0.6923  0.1129
  104POPC  H18T13893   3.492   4.629   3.942  0.4110 -0.2505 -0.7218
  104POPC   C3313894   2.797   4.460   2.702 -0.6032  0.3827  0.3355
  104POPC   H3X13895   2.831   4.564   2.686  0.6214  0.2456  1.7471
  104POPC   H3Y13896   2.886   4.403   2.666 -0.4516  0.6301  0.3187
  104POPC   C3413897   2.788   4.428   2.851 -0.1010 -1.0290  0.0545
  104POPC   H4X13898   2.785   4.321   2.880 -1.8985 -1.1451 -0.4309
  104POPC   H4Y13899   2.696   4.475   2.892 -0.3994 -1.6263  0.0859
  104POPC   C3513900   2.904   4.496   2.922  0.1085  0.9528 -0.2073
  104POPC   H5X13901   2.918   4.604   2.901 -1.2095  0.9887 -1.0254
  104POPC   H5Y13902   2.997   4.446   2.886 -0.8659 -0.9004 -0.2913
  104POPC   C3613903   2.892   4.472   3.074 -0.6184 -0.1365 -0.2497
  104POPC   H6X13904   2.866   4.365   3.088 -1.9526  0.4847  2.9551
  104POPC   H6Y13905   2.809   4.540   3.104 -0.6077  0.1033 -0.7500
  104POPC   C3713906   3.017   4.514   3.157  0.4118 -0.2490 -0.4690
  104POPC   H7X13907   3.090   4.435   3.130 -1.2382 -0.4094 -5.5859
  104POPC   H7Y13908   2.991   4.508   3.265 -1.2142  1.7691 -0.6817
  104POPC   C3813909   3.088   4.642   3.115  0.9548 -0.0756 -0.2697
  104POPC   H8X13910   3.136   4.644   3.014  1.8608  0.4674  0.1499
  104POPC   H8Y13911   3.161   4.663   3.197  0.0177  0.4536  0.4436
  104POPC   C3913912   3.003   4.774   3.121 -0.0665 -0.1187  0.2760
  104POPC   H9X13913   2.953   4.780   3.220 -1.4995 -0.3638 -0.4100
  104POPC   H9Y13914   2.921   4.760   3.048 -0.4834  0.1629  0.6829
  104POPC  C31013915   3.076   4.910   3.103 -0.8584 -0.5545  0.5947
  104POPC  H10X13916   3.123   4.898   3.003  0.5051  0.6179  1.0637
  104POPC  H10Y13917   3.153   4.928   3.181 -0.3685  2.4331 -0.4451
  104POPC  C31113918   2.981   5.028   3.113 -0.1961 -0.5945  0.4266
  104POPC  H11X13919   3.037   5.123   3.096 -0.3481 -0.8676 -2.0025
  104POPC  H11Y13920   2.941   5.017   3.216  1.7275 -0.8077  1.2007
  104POPC  C31213921   2.871   5.034   3.008 -0.0253 -0.7851 -0.2671
  104POPC  H12X13922   2.807   5.123   3.026  1.5632  0.1938  0.8130
  104POPC  H12Y13923   2.813   4.940   3.007 -1.2981 -0.1302  2.4995
  104POPC  C31313924   2.915   5.053   2.860 -0.1980  0.5754 -0.0048
  104POPC  H13X13925   2.974   4.965   2.826  1.2228  1.3928  0.2715
  104POPC  H13Y13926   2.978   5.145   2.856  2.0113 -0.9079 -1.2245
  104POPC  C31413927   2.808   5.081   2.754  0.2355 -1.1261 -0.4863
  104POPC  H14X13928   2.719   5.019   2.778  0.3816 -1.4877 -0.8623
  104POPC  H14Y13929   2.852   5.055   2.655 -0.1058 -2.0052 -0.4139
  104POPC  C31513930   2.763   5.232   2.747 -0.7192  0.6388  0.6217
  104POPC  H15X13931   2.846   5.305   2.754 -0.9451  1.3919 -2.6364
  104POPC  H15Y13932   2.700   5.263   2.833  0.4135  0.3751  1.5590
  104POPC  C31613933   2.685   5.276   2.620 -0.3860 -0.0066  0.4127
  104POPC  H16X13934   2.595   5.211   2.612 -0.6016  0.3404 -0.0182
  104POPC  H16Y13935   2.768   5.269   2.547 -0.5536  1.0914  0.0996
  104POPC  H16Z13936   2.652   5.380   2.639 -0.5366 -0.0055  0.1491
  105POPC     N13937   5.333   0.904   1.814 -0.0313  0.1297  0.6538
  105POPC   C1213938   5.386   1.039   1.763 -0.5837 -0.1863  0.2604
  105POPC  H12A13939   5.333   1.114   1.819 -0.8382 -0.6085  0.5965
  105POPC  H12B13940   5.368   1.058   1.658  1.2108  1.5518  0.2177
  105POPC   C1313941   5.387   0.794   1.729 -0.6859  0.9512 -0.3704
  105POPC  H13A13942   5.357   0.802   1.626 -2.4499  2.3509  0.1898
  105POPC  H13B13943   5.494   0.785   1.727 -0.5637  2.2954 -1.0138
  105POPC  H13C13944   5.350   0.702   1.770 -1.3137  2.5509  3.0299
  105POPC   C1413945   5.362   0.868   1.953 -0.2741  0.1253  0.5306
  105POPC  H14A13946   5.322   0.771   1.981  1.0820 -0.9348 -1.0028
  105POPC  H14B13947   5.470   0.858   1.960 -0.2868  0.9025  2.2343
  105POPC  H14C13948   5.341   0.945   2.025  2.4060  1.3362  0.1517
  105POPC   C1513949   5.186   0.906   1.793 -0.1346 -0.1672  0.5840
  105POPC  H15A13950   5.164   0.941   1.693 -1.2924  3.8698  2.0480
  105POPC  H15B13951   5.142   0.968   1.870  1.2911  1.2336  0.3358
  105POPC  H15C13952   5.150   0.807   1.813 -1.8087  0.7065  2.1678
  105POPC   C1113953   5.542   1.051   1.785  0.7702 -0.1923  0.3857
  105POPC  H11A13954   5.579   1.144   1.737 -3.4777  0.5588 -1.9182
  105POPC  H11B13955   5.594   0.965   1.738 -1.1614 -0.1554 -1.9750
  105POPC     P13956   5.602   1.171   2.002  0.0582 -0.2219  0.1097
  105POPC   O1313957   5.511   1.273   1.955  0.0067  0.2932 -0.5945
  105POPC   O1413958   5.746   1.203   1.994  0.1488 -0.6133 -0.5136
  105POPC   O1213959   5.583   1.041   1.922  0.0086 -0.3447 -0.0351
  105POPC   O1113960   5.569   1.129   2.146  0.5259 -0.8420  0.5620
  105POPC    C113961   5.433   1.156   2.195  0.2626  0.1710  0.9155
  105POPC    HA13962   5.400   1.069   2.255  0.0179 -0.1389  0.3406
  105POPC    HB13963   5.355   1.173   2.118  0.5143  0.7713  0.7794
  105POPC    C213964   5.452   1.265   2.306  0.3821 -0.2747 -0.6059
  105POPC    HS13965   5.446   1.366   2.261 -0.2112  0.3211  0.7493
  105POPC   O2113966   5.577   1.259   2.373 -0.3457 -0.2856 -0.5545
  105POPC   C2113967   5.671   1.346   2.332 -1.0212 -0.0466 -0.2615
  105POPC   O2213968   5.651   1.454   2.283  0.5662  0.4478 -0.4846
  105POPC   C2213969   5.809   1.292   2.357 -0.1798 -0.6851 -0.2940
  105POPC   H2R13970   5.861   1.268   2.261  1.1497 -0.0387  0.2494
  105POPC   H2S13971   5.803   1.195   2.410 -2.0697 -1.1513 -1.2610
  105POPC    C313972   5.350   1.261   2.416  0.4134 -0.0893 -0.2115
  105POPC    HX13973   5.334   1.157   2.454 -2.6459  0.4345  0.1924
  105POPC    HY13974   5.260   1.293   2.359  3.6482  1.8003 -4.9222
  105POPC   O3113975   5.380   1.351   2.523  0.4042  0.7664 -0.8051
  105POPC   C3113976   5.440   1.298   2.628  0.9629 -0.1358 -0.5863
  105POPC   O3213977   5.482   1.181   2.633  0.1496 -0.5351  0.1774
  105POPC   C3213978   5.448   1.401   2.749 -0.4168 -0.4224  0.1160
  105POPC   H2X13979   5.356   1.459   2.771 -0.7810 -0.7482 -0.5375
  105POPC   H2Y13980   5.535   1.465   2.721  0.3316 -0.2222  2.6507
  105POPC   C2313981   5.898   1.393   2.435  1.0693  0.0696  0.4472
  105POPC   H3R13982   5.910   1.487   2.377 -1.7370  0.8571  0.9532
  105POPC   H3S13983   5.997   1.349   2.456  0.5814 -0.4723  1.7536
  105POPC   C2413984   5.842   1.428   2.575  0.1332 -0.3562  0.8586
  105POPC   H4R13985   5.812   1.333   2.624  1.8055 -1.0883  0.5528
  105POPC   H4S13986   5.747   1.479   2.550  0.6296 -0.4100 -1.3577
  105POPC   C2513987   5.934   1.494   2.667  0.5656  0.2997  0.6871
  105POPC   H5R13988   5.960   1.597   2.635 -0.4668  0.3042 -0.2191
  105POPC   H5S13989   6.030   1.439   2.672  0.2381 -0.3236  0.3624
  105POPC   C2613990   5.880   1.495   2.808  0.3102  0.4557 -0.5418
  105POPC   H6R13991   5.869   1.392   2.848  1.1344  0.3411 -0.5852
  105POPC   H6S13992   5.784   1.549   2.813  1.0771  1.7484  1.3247
  105POPC   C2713993   5.963   1.568   2.915 -0.0043 -0.5125 -0.5417
  105POPC   H7R13994   5.952   1.677   2.895  0.7236 -0.6840 -2.0065
  105POPC   H7S13995   6.069   1.550   2.884  0.6898  0.6102  1.0362
  105POPC   C2813996   5.925   1.520   3.052  0.1045 -0.7671 -0.3519
  105POPC   H8R13997   5.976   1.424   3.073  1.1358  0.0189  0.8988
  105POPC   H8S13998   5.817   1.492   3.048 -0.3067  0.7261 -0.2136
  105POPC   C2913999   5.946   1.632   3.151  0.2214  0.1226 -0.2762
  105POPC   H9114000   5.970   1.734   3.120  1.7124 -0.0637  0.1978
  105POPC  C21014001   5.953   1.600   3.281 -0.0358  0.4412 -0.5398
  105POPC  H10114002   5.954   1.685   3.351 -3.2655 -0.2951  0.5468
  105POPC  C21114003   5.949   1.458   3.339 -0.4833  0.3236  0.4487
  105POPC  H11R14004   5.881   1.397   3.277  1.1670  0.8552 -2.0558
  105POPC  H11S14005   5.913   1.465   3.444 -1.6429  3.5646 -0.0275
  105POPC  C21214006   6.089   1.395   3.331  0.7540 -0.5875  0.2712
  105POPC  H12R14007   6.168   1.459   3.376  1.4592 -1.6849  0.6439
  105POPC  H12S14008   6.128   1.386   3.228  2.6278  0.6582  0.8278
  105POPC  C21314009   6.086   1.254   3.396 -0.6622 -0.6680 -0.3881
  105POPC  H13R14010   6.009   1.191   3.347  1.0929 -1.2774 -2.5069
  105POPC  H13S14011   6.061   1.269   3.504 -2.0319  2.1037 -1.0050
  105POPC  C21414012   6.226   1.189   3.387 -0.5699  0.9118  0.0560
  105POPC  H14R14013   6.303   1.244   3.446  0.2406  0.9881 -1.0331
  105POPC  H14S14014   6.243   1.193   3.277 -1.5535  0.5208 -0.1227
  105POPC  C21514015   6.223   1.049   3.448 -0.1946  0.0083  0.4081
  105POPC  H15R14016   6.120   1.010   3.430 -0.3102 -0.2283  1.4815
  105POPC  H15S14017   6.234   1.059   3.558 -1.6857  1.4880  0.4496
  105POPC  C21614018   6.312   0.951   3.381  0.1383  0.1987 -0.5465
  105POPC  H16R14019   6.416   0.989   3.371  0.1154  0.8583  1.2984
  105POPC  H16S14020   6.282   0.927   3.277  1.1500 -2.8018 -0.2301
  105POPC  C21714021   6.321   0.809   3.444  0.6443  0.4472  0.4805
  105POPC  H17R14022   6.389   0.738   3.392  0.4359 -0.3266  1.2505
  105POPC  H17S14023   6.220   0.763   3.441  0.2796  1.1440  1.5308
  105POPC  C21814024   6.369   0.814   3.588 -0.6596 -0.0825 -0.2612
  105POPC  H18R14025   6.422   0.908   3.614  0.9006 -1.5972  2.5196
  105POPC  H18S14026   6.437   0.728   3.607 -0.3999  0.0097 -0.7619
  105POPC  H18T14027   6.278   0.807   3.651 -1.6172  1.0721 -1.4538
  105POPC   C3314028   5.481   1.323   2.884 -0.1005 -0.2632  0.2216
  105POPC   H3X14029   5.563   1.253   2.857  0.6115  1.5009 -2.7529
  105POPC   H3Y14030   5.384   1.293   2.929 -1.5510  1.2280 -1.7228
  105POPC   C3414031   5.534   1.412   2.997 -0.0809 -0.0855  0.2037
  105POPC   H4X14032   5.600   1.484   2.944 -2.1647  1.6447 -0.2159
  105POPC   H4Y14033   5.584   1.334   3.057  0.4850  0.7123  0.7834
  105POPC   C3514034   5.423   1.484   3.079 -0.1115 -0.7859 -0.6550
  105POPC   H5X14035   5.347   1.410   3.112 -2.9695  1.9831 -0.5729
  105POPC   H5Y14036   5.373   1.567   3.024 -0.4751  0.2252  1.1074
  105POPC   C3614037   5.490   1.557   3.193 -0.4030  0.4083  0.2951
  105POPC   H6X14038   5.420   1.635   3.231 -1.8661 -0.8100  0.1678
  105POPC   H6Y14039   5.583   1.601   3.151 -1.4148  0.2412 -2.2902
  105POPC   C3714040   5.514   1.466   3.319 -0.8074 -0.2564  0.1677
  105POPC   H7X14041   5.582   1.387   3.281  1.6468  0.9530  1.7825
  105POPC   H7Y14042   5.421   1.431   3.371 -0.6287  0.2507  0.8380
  105POPC   C3814043   5.592   1.547   3.420  0.0879 -0.0822 -0.7710
  105POPC   H8X14044   5.547   1.648   3.433  3.0855  1.1900  0.7658
  105POPC   H8Y14045   5.696   1.573   3.389  0.6564  0.2199  1.2240
  105POPC   C3914046   5.611   1.486   3.562  0.4271 -0.1134 -0.2913
  105POPC   H9X14047   5.514   1.513   3.609  0.7159  3.1184 -1.3014
  105POPC   H9Y14048   5.684   1.546   3.620 -0.5181 -0.2776  1.1162
  105POPC  C31014049   5.649   1.340   3.559  0.4489 -0.3309  0.2136
  105POPC  H10X14050   5.729   1.327   3.483  2.6446  0.9862  2.1531
  105POPC  H10Y14051   5.557   1.283   3.534  0.0978 -1.3751  3.3418
  105POPC  C31114052   5.716   1.276   3.689  0.7557 -0.4337 -0.0031
  105POPC  H11X14053   5.758   1.186   3.639 -1.1240 -0.7238 -1.1328
  105POPC  H11Y14054   5.638   1.253   3.765 -0.6116  0.2891 -1.1469
  105POPC  C31214055   5.836   1.355   3.751  0.5176 -0.2221 -0.2115
  105POPC  H12X14056   5.798   1.427   3.826 -0.3372 -1.5392  0.6568
  105POPC  H12Y14057   5.896   1.403   3.670 -0.8918 -1.0897 -1.8286
  105POPC  C31314058   5.942   1.271   3.832 -1.2811  0.0121 -0.0142
  105POPC  H13X14059   5.966   1.190   3.760  2.5453  0.4210  0.6015
  105POPC  H13Y14060   5.900   1.226   3.924  1.9879  0.1825  1.7100
  105POPC  C31414061   6.069   1.348   3.873 -0.8763  0.3103 -0.1241
  105POPC  H14X14062   6.031   1.431   3.936  1.0037 -0.9174  2.8828
  105POPC  H14Y14063   6.115   1.396   3.785 -0.0094 -0.4149 -0.0851
  105POPC  C31514064   6.176   1.259   3.939  0.2193  0.5606  0.0168
  105POPC  H15X14065   6.213   1.189   3.862  0.8784  2.9354 -1.9599
  105POPC  H15Y14066   6.124   1.203   4.020  1.7464 -1.2479 -0.1920
  105POPC  C31614067   6.298   1.336   3.996 -0.2857 -0.3528 -0.4736
  105POPC  H16X14068   6.372   1.265   4.039 -1.8632 -0.8315  1.5735
  105POPC  H16Y14069   6.269   1.402   4.081 -0.8847  0.3314 -1.1920
  105POPC  H16Z14070   6.338   1.397   3.913  1.6925 -0.6245  0.2250
  106POPC     N14071   5.317   2.525   1.721  0.7459  0.0909 -0.4095
  106POPC   C1214072   5.293   2.568   1.862 -0.1062 -0.3519 -0.3689
  106POPC  H12A14073   5.330   2.669   1.872 -0.0095 -0.4682  0.5012
  106POPC  H12B14074   5.358   2.515   1.930  0.9556  1.0853 -0.2294
  106POPC   C1314075   5.460   2.528   1.676  0.3628  0.9038  0.3022
  106POPC  H13A14076   5.477   2.501   1.573 -0.5721 -0.0814  0.3884
  106POPC  H13B14077   5.511   2.622   1.689  3.5163 -0.8495  1.9785
  106POPC  H13C14078   5.512   2.451   1.732 -1.1200  1.0626  1.9903
  106POPC   C1414079   5.269   2.386   1.710  0.2420 -0.4244  0.5221
  106POPC  H14A14080   5.164   2.380   1.735 -0.8727  1.0318 -3.1480
  106POPC  H14B14081   5.287   2.344   1.612  0.3197 -0.9376  0.7520
  106POPC  H14C14082   5.327   2.323   1.776 -1.0161 -0.7175  1.3794
  106POPC   C1514083   5.241   2.608   1.629  0.5240 -0.8399  0.0688
  106POPC  H15A14084   5.140   2.613   1.667  0.8423  0.0932  0.8390
  106POPC  H15B14085   5.242   2.582   1.524 -2.3467 -1.6646  0.1520
  106POPC  H15C14086   5.271   2.712   1.637 -0.1885 -0.6790  0.8378
  106POPC   C1114087   5.139   2.556   1.915 -0.6887  0.3730  0.7738
  106POPC  H11A14088   5.145   2.577   2.024  0.3600  5.1634 -0.0206
  106POPC  H11B14089   5.093   2.455   1.901  1.3825 -0.5055 -0.1472
  106POPC     P14090   4.903   2.632   1.817  0.0964 -0.1979 -0.1728
  106POPC   O1314091   4.851   2.499   1.861 -0.0041 -0.5592  0.0089
  106POPC   O1414092   4.901   2.655   1.671  0.0620 -0.0118 -0.4184
  106POPC   O1214093   5.056   2.656   1.868  0.6762 -0.5117 -0.2179
  106POPC   O1114094   4.818   2.739   1.896  0.0119 -0.2198  0.9865
  106POPC    C114095   4.865   2.767   2.028  0.1517  0.1771 -0.1500
  106POPC    HA14096   4.850   2.871   2.062 -1.8358 -0.4645  1.1232
  106POPC    HB14097   4.969   2.736   2.052  0.1597 -0.0539 -0.4745
  106POPC    C214098   4.784   2.689   2.139  0.0722 -0.1915  0.0181
  106POPC    HS14099   4.763   2.588   2.098 -0.1264 -0.0157 -0.3260
  106POPC   O2114100   4.667   2.764   2.163 -0.2101 -0.1211 -0.2502
  106POPC   C2114101   4.559   2.687   2.178  0.0394 -0.5553  0.1179
  106POPC   O2214102   4.553   2.564   2.161  0.6903 -0.5613 -0.0099
  106POPC   C2214103   4.435   2.774   2.210  0.8819 -0.5790 -0.5706
  106POPC   H2R14104   4.374   2.800   2.121 -0.0126  0.4152  0.3016
  106POPC   H2S14105   4.459   2.883   2.214 -0.0759 -0.3398 -0.9722
  106POPC    C314106   4.865   2.671   2.270  0.2922 -1.1451 -0.7650
  106POPC    HX14107   4.906   2.773   2.288 -0.7682 -0.8840  0.2254
  106POPC    HY14108   4.958   2.611   2.262  0.2572 -1.3225  0.0948
  106POPC   O3114109   4.782   2.635   2.388  0.4432  0.0471  0.1847
  106POPC   C3114110   4.800   2.518   2.433  0.1367  0.5672  0.1518
  106POPC   O3214111   4.888   2.439   2.403 -0.2734 -0.1263  0.3947
  106POPC   C3214112   4.706   2.487   2.546  0.0330 -0.0005 -0.9423
  106POPC   H2X14113   4.636   2.574   2.545  2.5439  2.1575 -0.4754
  106POPC   H2Y14114   4.762   2.490   2.642 -1.9692  1.9259  0.2989
  106POPC   C2314115   4.344   2.728   2.334  0.0876 -0.2812  0.8469
  106POPC   H3R14116   4.296   2.816   2.381 -0.3742 -0.2146  0.2629
  106POPC   H3S14117   4.405   2.684   2.415  1.1687  0.4467  0.4444
  106POPC   C2414118   4.244   2.612   2.293 -0.0090  0.3411  0.8013
  106POPC   H4R14119   4.309   2.523   2.279 -3.7687 -2.5979  0.5916
  106POPC   H4S14120   4.200   2.642   2.195  0.2068 -1.9812 -0.0712
  106POPC   C2514121   4.124   2.587   2.384 -0.3613 -0.6520  0.1200
  106POPC   H5R14122   4.090   2.482   2.369 -2.8775  0.0666  0.4280
  106POPC   H5S14123   4.036   2.649   2.356  0.6859  0.9030  0.1205
  106POPC   C2614124   4.150   2.594   2.536 -0.1346  0.1896 -0.0669
  106POPC   H6R14125   4.161   2.703   2.559 -0.9679  0.6822 -1.8264
  106POPC   H6S14126   4.248   2.546   2.555  0.0437  1.3925  2.4523
  106POPC   C2714127   4.035   2.515   2.614 -0.8096 -0.4065 -0.2354
  106POPC   H7R14128   4.016   2.414   2.572 -4.7240  0.4357 -0.8584
  106POPC   H7S14129   3.935   2.561   2.603 -0.1488  1.0266 -0.4870
  106POPC   C2814130   4.069   2.513   2.769  0.1762 -0.4587  0.0867
  106POPC   H8R14131   4.115   2.609   2.800 -0.9729 -0.0138  0.4923
  106POPC   H8S14132   4.149   2.437   2.774  0.6841  0.0605 -0.0809
  106POPC   C2914133   3.961   2.480   2.862  0.1900 -0.1660 -0.2144
  106POPC   H9114134   3.876   2.548   2.846  0.1380 -0.0091  0.6546
  106POPC  C21014135   3.963   2.404   2.974 -0.2468  0.1403  0.2743
  106POPC  H10114136   3.872   2.402   3.037 -0.8661 -1.6668 -0.6035
  106POPC  C21114137   4.083   2.332   3.027  0.9961  0.2979  0.3041
  106POPC  H11R14138   4.171   2.360   2.966  0.8355 -0.1079 -0.1107
  106POPC  H11S14139   4.079   2.223   3.008 -1.6115  0.4441 -0.4074
  106POPC  C21214140   4.111   2.355   3.179 -0.6119  0.3074  0.0551
  106POPC  H12R14141   4.141   2.460   3.201 -1.0498  0.5156 -0.3273
  106POPC  H12S14142   4.205   2.304   3.208 -0.0090  1.2388 -0.2046
  106POPC  C21314143   4.008   2.319   3.280  0.4541 -0.1732 -0.6672
  106POPC  H13R14144   4.006   2.210   3.301 -0.0907  0.1101  0.8734
  106POPC  H13S14145   3.916   2.350   3.226  0.2470  0.4792  0.0403
  106POPC  C21414146   4.036   2.385   3.420  0.0370 -0.1244  0.2914
  106POPC  H14R14147   3.941   2.371   3.475  0.0204 -1.8138 -0.1020
  106POPC  H14S14148   4.045   2.495   3.412  2.4204 -0.1410  1.6559
  106POPC  C21514149   4.159   2.325   3.491  0.6303  1.0910 -0.5349
  106POPC  H15R14150   4.256   2.350   3.443  0.4237 -0.7763 -2.0197
  106POPC  H15S14151   4.145   2.215   3.491 -3.1050  1.4214  0.4889
  106POPC  C21614152   4.159   2.365   3.634  0.2131 -0.9515  0.3412
  106POPC  H16R14153   4.070   2.326   3.688  0.6379 -0.3410  1.5130
  106POPC  H16S14154   4.160   2.476   3.643 -0.4015 -0.6388 -2.6219
  106POPC  C21714155   4.284   2.316   3.700 -0.3241 -0.4997 -0.4118
  106POPC  H17R14156   4.368   2.373   3.656 -0.8531  1.1936  0.6796
  106POPC  H17S14157   4.315   2.212   3.676 -3.1682 -1.4277 -0.4552
  106POPC  C21814158   4.274   2.344   3.846  0.1691  0.0453  0.0376
  106POPC  H18R14159   4.236   2.447   3.861  0.2280  0.0834 -0.0737
  106POPC  H18S14160   4.371   2.323   3.896  0.5375 -0.4872 -0.8756
  106POPC  H18T14161   4.199   2.276   3.894  2.1003 -2.9672 -0.9460
  106POPC   C3314162   4.636   2.353   2.513  0.3725 -0.1332 -0.7975
  106POPC   H3X14163   4.710   2.270   2.510 -1.0986 -1.4818 -0.9084
  106POPC   H3Y14164   4.586   2.359   2.414 -1.0509 -1.3408 -0.2016
  106POPC   C3414165   4.527   2.311   2.612  0.2794  0.5624  0.2781
  106POPC   H4X14166   4.453   2.394   2.606 -0.1347  0.1321 -0.8234
  106POPC   H4Y14167   4.560   2.302   2.718  1.5721  2.3109  0.0795
  106POPC   C3514168   4.446   2.188   2.560  0.1084 -0.4675  0.0433
  106POPC   H5X14169   4.512   2.111   2.516  1.0300 -0.2181  0.9490
  106POPC   H5Y14170   4.384   2.222   2.474 -1.8162 -1.5662  0.9264
  106POPC   C3614171   4.339   2.126   2.640 -0.3202  0.7353 -1.4117
  106POPC   H6X14172   4.282   2.048   2.584 -1.8130 -0.2914  1.3153
  106POPC   H6Y14173   4.262   2.203   2.662  2.1634  2.7486  0.9164
  106POPC   C3714174   4.390   2.059   2.768  0.1913  0.8476 -0.1260
  106POPC   H7X14175   4.467   2.118   2.822  0.2202 -0.8215  1.7693
  106POPC   H7Y14176   4.440   1.962   2.746 -0.3188  0.6763 -0.5425
  106POPC   C3814177   4.280   2.035   2.870 -0.4222 -0.3826  0.7448
  106POPC   H8X14178   4.202   1.972   2.821  0.1628  0.3009 -1.1604
  106POPC   H8Y14179   4.223   2.128   2.891 -0.7069 -0.5714  0.8168
  106POPC   C3914180   4.327   1.978   3.007  0.2634  0.1208  0.2394
  106POPC   H9X14181   4.388   2.043   3.072  1.6002 -0.8235 -0.0305
  106POPC   H9Y14182   4.385   1.889   2.974  0.9256  1.5125 -2.7104
  106POPC  C31014183   4.207   1.924   3.096  0.3172 -0.8309  0.5613
  106POPC  H10X14184   4.165   1.838   3.040  0.8781 -0.5513 -0.2929
  106POPC  H10Y14185   4.126   1.999   3.111 -0.2361 -1.2503 -0.3093
  106POPC  C31114186   4.258   1.852   3.214  0.4914 -0.1030 -0.1194
  106POPC  H11X14187   4.311   1.932   3.270 -1.8413  1.3297  0.1973
  106POPC  H11Y14188   4.338   1.780   3.188  1.7562  0.6587  1.4836
  106POPC  C31214189   4.142   1.791   3.288  0.5794  0.9374 -0.2536
  106POPC  H12X14190   4.109   1.697   3.239  2.1905 -0.2600  0.8424
  106POPC  H12Y14191   4.053   1.857   3.293 -0.5364 -0.5596  0.3965
  106POPC  C31314192   4.191   1.745   3.426 -0.3084 -0.3157 -0.0491
  106POPC  H13X14193   4.277   1.675   3.419 -0.1749 -0.3891  1.8119
  106POPC  H13Y14194   4.119   1.677   3.476  0.9508 -2.0676 -0.5331
  106POPC  C31414195   4.232   1.860   3.522  0.1632 -0.2001  0.1667
  106POPC  H14X14196   4.158   1.941   3.538  2.5010  1.6533  2.3848
  106POPC  H14Y14197   4.322   1.913   3.482 -0.5426  0.3862 -0.6999
  106POPC  C31514198   4.268   1.821   3.662  0.4795  0.0345  0.1239
  106POPC  H15X14199   4.354   1.750   3.661  0.8201  0.4459 -0.1895
  106POPC  H15Y14200   4.176   1.769   3.696  1.5531 -0.9460  1.6547
  106POPC  C31614201   4.284   1.940   3.766  0.2452 -0.8292 -0.4632
  106POPC  H16X14202   4.278   1.896   3.868 -0.5520 -0.6031 -0.4053
  106POPC  H16Y14203   4.209   2.022   3.762 -0.2831 -1.3174 -3.5786
  106POPC  H16Z14204   4.385   1.984   3.757 -0.0546 -0.0874 -0.2190
  107POPC     N14205   6.506   4.018   2.119  0.0263 -0.1556 -0.9397
  107POPC   C1214206   6.373   4.093   2.142 -0.4870  0.3907  0.3074
  107POPC  H12A14207   6.386   4.185   2.198  1.7836 -0.3055  0.9998
  107POPC  H12B14208   6.317   4.035   2.214  0.3453 -0.0291  0.6166
  107POPC   C1314209   6.605   4.083   2.034  0.0335 -0.2572  0.2855
  107POPC  H13A14210   6.574   4.099   1.932  0.5217 -0.5301  0.0885
  107POPC  H13B14211   6.638   4.179   2.069 -0.6696  0.7478 -1.6287
  107POPC  H13C14212   6.692   4.019   2.028 -1.2366 -2.3924  2.4684
  107POPC   C1414213   6.563   4.003   2.257  0.2284 -0.2516 -0.5940
  107POPC  H14A14214   6.503   3.953   2.331  0.0105  2.2133  1.0330
  107POPC  H14B14215   6.660   3.956   2.265  1.8123  2.7881 -0.5649
  107POPC  H14C14216   6.588   4.094   2.311  0.0661 -0.8936  0.5953
  107POPC   C1514217   6.482   3.887   2.060  0.1241  0.3098  0.6950
  107POPC  H15A14218   6.442   3.899   1.960 -1.3509 -1.3680  1.0281
  107POPC  H15B14219   6.405   3.834   2.114 -0.6440  0.1921 -0.4655
  107POPC  H15C14220   6.572   3.827   2.060 -0.7872 -1.2130 -1.2870
  107POPC   C1114221   6.277   4.109   2.027 -0.1202 -0.5465 -0.6648
  107POPC  H11A14222   6.329   4.161   1.944 -0.7530 -1.9369 -1.9879
  107POPC  H11B14223   6.198   4.185   2.045 -0.8210 -1.2312 -0.8272
  107POPC     P14224   6.073   3.944   1.989  0.4770  0.0335 -0.0657
  107POPC   O1314225   6.040   3.845   1.884 -0.3199 -0.4415  0.9457
  107POPC   O1414226   5.993   4.074   1.992  0.0610 -0.0476  0.3996
  107POPC   O1214227   6.226   3.980   1.980 -1.0020 -0.6159  0.6739
  107POPC   O1114228   6.056   3.868   2.125  0.0240  0.2318 -0.5363
  107POPC    C114229   6.166   3.808   2.187  0.5373 -0.4412  0.2003
  107POPC    HA14230   6.239   3.883   2.224 -0.7466 -0.2425  2.4980
  107POPC    HB14231   6.225   3.738   2.124 -0.8484 -1.4471 -0.0100
  107POPC    C214232   6.115   3.712   2.301  0.8832 -0.3842  0.2481
  107POPC    HS14233   6.033   3.655   2.250  2.4644 -1.6676 -0.9727
  107POPC   O2114234   6.071   3.786   2.417 -0.2900  0.1872 -0.2100
  107POPC   C2114235   5.986   3.720   2.497 -0.4003 -0.1967  0.2500
  107POPC   O2214236   5.961   3.602   2.477  0.2780 -0.2765  0.6934
  107POPC   C2214237   5.957   3.805   2.612  0.5483  0.0636  0.4548
  107POPC   H2R14238   5.913   3.898   2.570  1.7053  0.7609  0.7446
  107POPC   H2S14239   6.047   3.830   2.671  1.3205 -2.9998  0.7498
  107POPC    C314240   6.222   3.608   2.341  0.0447 -0.4335 -0.4397
  107POPC    HX14241   6.256   3.557   2.248 -0.4780  1.4424 -1.7244
  107POPC    HY14242   6.177   3.534   2.410 -3.2809 -0.6633 -2.6638
  107POPC   O3114243   6.329   3.678   2.402 -0.0201 -0.2000  0.0910
  107POPC   C3114244   6.343   3.667   2.534  0.8561  0.0352  0.5053
  107POPC   O3214245   6.272   3.597   2.606 -0.3753  0.2044 -0.2538
  107POPC   C3214246   6.457   3.762   2.574  0.7059 -0.2046 -0.3983
  107POPC   H2X14247   6.424   3.866   2.553 -0.6808 -0.1635  1.6944
  107POPC   H2Y14248   6.539   3.727   2.507  1.1112  2.7050 -1.5842
  107POPC   C2314249   5.853   3.733   2.705  0.1487  0.4052  0.7734
  107POPC   H3R14250   5.772   3.682   2.650 -0.3734  0.0314  1.8483
  107POPC   H3S14251   5.801   3.801   2.776  0.6269  0.8436  0.7100
  107POPC   C2414252   5.921   3.629   2.796  0.3962  0.0207  0.1997
  107POPC   H4R14253   5.967   3.668   2.889 -1.4129  1.3185  0.6071
  107POPC   H4S14254   6.009   3.584   2.745  0.5798  1.9803 -1.3064
  107POPC   C2514255   5.830   3.517   2.846  0.0076 -0.1297  0.2610
  107POPC   H5R14256   5.893   3.447   2.904 -0.9617 -1.8420 -0.6869
  107POPC   H5S14257   5.796   3.479   2.748  0.4223  0.3672 -0.0842
  107POPC   C2614258   5.714   3.555   2.934 -0.4624 -0.2309 -0.3287
  107POPC   H6R14259   5.661   3.639   2.883  0.7429  1.5597  1.2222
  107POPC   H6S14260   5.755   3.592   3.031  0.5315  0.2116 -0.9042
  107POPC   C2714261   5.629   3.436   2.978 -0.4315  0.3082 -0.2087
  107POPC   H7R14262   5.693   3.349   3.006  1.2486  1.7106  0.4644
  107POPC   H7S14263   5.572   3.407   2.887  0.4165  0.6753 -0.8684
  107POPC   C2814264   5.541   3.450   3.103 -0.6271  0.1921  0.5239
  107POPC   H8R14265   5.595   3.515   3.176  1.0475  1.5167 -1.7716
  107POPC   H8S14266   5.515   3.356   3.157 -0.7719  1.0093  1.9472
  107POPC   C2914267   5.416   3.525   3.070 -0.5167  0.4626 -0.2658
  107POPC   H9114268   5.387   3.535   2.964 -0.0077 -1.3626 -0.6128
  107POPC  C21014269   5.335   3.597   3.147  0.2840 -0.3133  0.3334
  107POPC  H10114270   5.234   3.629   3.115  0.1554  0.0278  1.0422
  107POPC  C21114271   5.345   3.602   3.298  0.4170 -0.0127 -0.0857
  107POPC  H11R14272   5.365   3.704   3.337 -2.3149  0.6665 -0.2650
  107POPC  H11S14273   5.420   3.528   3.334  0.5195 -0.4602 -1.1829
  107POPC  C21214274   5.215   3.562   3.372 -0.5288  0.4912 -0.8345
  107POPC  H12R14275   5.130   3.629   3.343 -2.6282 -1.5099  0.3349
  107POPC  H12S14276   5.242   3.572   3.479  0.4199 -0.4620 -0.9752
  107POPC  C21314277   5.175   3.415   3.361  0.6124 -0.3619 -0.0512
  107POPC  H13R14278   5.260   3.352   3.394  1.0303  0.4166  0.3814
  107POPC  H13S14279   5.148   3.407   3.253  0.1116 -2.1402  0.1628
  107POPC  C21414280   5.047   3.378   3.442  0.2165  0.9608  0.3956
  107POPC  H14R14281   5.031   3.274   3.408  2.2406  0.4797  0.8046
  107POPC  H14S14282   4.958   3.437   3.408 -0.1298 -1.2215 -3.0216
  107POPC  C21514283   5.087   3.372   3.591  0.4700 -0.3408  0.1037
  107POPC  H15R14284   5.090   3.469   3.645  1.5495 -0.1064 -0.3534
  107POPC  H15S14285   5.192   3.335   3.596 -0.5203 -3.3741  0.9077
  107POPC  C21614286   4.997   3.278   3.675 -0.1980 -0.5949 -0.0692
  107POPC  H16R14287   4.987   3.191   3.607  0.2351  0.1995 -1.1712
  107POPC  H16S14288   4.907   3.337   3.703  1.5007  1.7299  0.8062
  107POPC  C21714289   5.066   3.242   3.808 -0.2831  0.3205 -0.8236
  107POPC  H17R14290   4.995   3.178   3.865  0.1267 -0.0594 -0.7276
  107POPC  H17S14291   5.082   3.327   3.878  1.5870 -1.7869  1.5049
  107POPC  C21814292   5.200   3.168   3.789 -0.1530  0.2229 -0.1038
  107POPC  H18R14293   5.274   3.241   3.749 -0.5531  0.1600 -0.9769
  107POPC  H18S14294   5.192   3.086   3.715  0.8593 -0.0850  0.1041
  107POPC  H18T14295   5.230   3.125   3.887 -1.4869  0.3662  0.3884
  107POPC   C3314296   6.466   3.748   2.727  0.3348  0.0661  0.5852
  107POPC   H3X14297   6.565   3.784   2.761  1.0819 -1.5297  0.1791
  107POPC   H3Y14298   6.458   3.644   2.763 -0.8405  0.4286  1.4564
  107POPC   C3414299   6.361   3.835   2.803  1.0290  0.2471  0.3226
  107POPC   H4X14300   6.262   3.786   2.790  0.2368  1.5143  1.2887
  107POPC   H4Y14301   6.356   3.929   2.744 -1.2439  0.3770  0.6280
  107POPC   C3514302   6.402   3.857   2.950 -0.1093 -0.7840  0.3446
  107POPC   H5X14303   6.334   3.937   2.987  0.2337 -0.1868 -0.3045
  107POPC   H5Y14304   6.504   3.901   2.954 -0.3836 -0.0861 -0.2411
  107POPC   C3614305   6.406   3.737   3.044  0.0848  0.1071  0.2181
  107POPC   H6X14306   6.420   3.773   3.148  1.0322  1.6105 -0.3825
  107POPC   H6Y14307   6.488   3.670   3.011  1.1489  2.1291 -1.5715
  107POPC   C3714308   6.282   3.651   3.041 -0.1660  0.3089 -0.1396
  107POPC   H7X14309   6.259   3.611   2.940  0.8578 -1.2468  0.2048
  107POPC   H7Y14310   6.191   3.698   3.084 -0.2794 -0.7068  0.7904
  107POPC   C3814311   6.294   3.532   3.140 -0.4854  0.5819 -0.3674
  107POPC   H8X14312   6.337   3.577   3.232 -0.5010  1.0171 -0.5696
  107POPC   H8Y14313   6.375   3.460   3.114  0.3237  1.3918 -0.1345
  107POPC   C3914314   6.161   3.460   3.165 -0.3625  0.1241 -0.0149
  107POPC   H9X14315   6.174   3.371   3.230 -3.8365 -1.1339 -0.8026
  107POPC   H9Y14316   6.133   3.411   3.068 -0.4824  3.1939 -1.6427
  107POPC  C31014317   6.037   3.547   3.212 -0.1979  0.5382 -0.5339
  107POPC  H10X14318   5.959   3.469   3.204  0.5506 -0.4716  1.2789
  107POPC  H10Y14319   6.015   3.632   3.144 -0.3396  1.0917  0.1807
  107POPC  C31114320   6.055   3.596   3.360  0.0017  0.1688 -0.1676
  107POPC  H11X14321   6.158   3.639   3.365  0.0276  0.0921 -0.0067
  107POPC  H11Y14322   6.055   3.507   3.427  2.6639 -0.1285 -0.4711
  107POPC  C31214323   5.945   3.695   3.403  0.4344 -0.2251  0.3047
  107POPC  H12X14324   5.938   3.785   3.338  0.0297  2.1667  3.3894
  107POPC  H12Y14325   5.958   3.740   3.504 -0.0580 -2.0765  1.2457
  107POPC  C31314326   5.799   3.625   3.407 -0.4387 -0.2059  0.2345
  107POPC  H13X14327   5.810   3.547   3.485 -2.9352 -0.6105  0.2539
  107POPC  H13Y14328   5.769   3.587   3.307 -1.6920  3.4361 -0.9246
  107POPC  C31414329   5.693   3.727   3.446 -0.0037  0.1403 -0.8807
  107POPC  H14X14330   5.592   3.684   3.431  0.2851 -0.9164  0.0849
  107POPC  H14Y14331   5.705   3.812   3.374  2.7486 -0.7460 -1.5679
  107POPC  C31514332   5.710   3.779   3.590  0.3883  0.5333 -0.0944
  107POPC  H15X14333   5.665   3.880   3.599  0.3907  0.6570 -1.3204
  107POPC  H15Y14334   5.811   3.785   3.634 -0.2418 -0.4470  1.5892
  107POPC  C31614335   5.617   3.698   3.679  0.2363 -0.7191  0.3059
  107POPC  H16X14336   5.614   3.743   3.781  0.1529  0.5236 -0.2291
  107POPC  H16Y14337   5.658   3.595   3.686 -0.9786 -1.2104  0.3621
  107POPC  H16Z14338   5.513   3.689   3.643  0.0139  0.8655  0.4974
  108POPC     N14339   5.842   4.208   2.340 -0.1167 -0.1193 -0.2262
  108POPC   C1214340   5.882   4.242   2.479  0.2033  0.3140  1.0346
  108POPC  H12A14341   5.990   4.239   2.474  0.1573 -2.8319 -0.4896
  108POPC  H12B14342   5.857   4.151   2.532  0.6229 -0.3212  0.1626
  108POPC   C1314343   5.701   4.225   2.304 -0.7592 -0.0512 -0.1590
  108POPC  H13A14344   5.678   4.330   2.294  0.6704  0.2147 -0.8449
  108POPC  H13B14345   5.670   4.177   2.213 -1.6642 -0.5572  0.3934
  108POPC  H13C14346   5.640   4.183   2.383 -1.2003  0.7384 -0.0738
  108POPC   C1414347   5.916   4.291   2.246 -0.1145  0.0757  0.3282
  108POPC  H14A14348   5.900   4.398   2.245  3.1818  0.6614 -0.2336
  108POPC  H14B14349   6.021   4.267   2.248 -0.0004  0.4822 -0.3994
  108POPC  H14C14350   5.898   4.265   2.142  0.2246  1.4365 -0.0893
  108POPC   C1514351   5.872   4.063   2.314 -0.2398  0.3511  0.1771
  108POPC  H15A14352   5.859   4.028   2.213 -0.3070  0.3954  0.1699
  108POPC  H15B14353   5.802   4.008   2.376  1.2151 -1.3743  0.3491
  108POPC  H15C14354   5.973   4.041   2.343  0.1493  0.8137 -0.8017
  108POPC   C1114355   5.834   4.374   2.547 -0.0695  0.7761  0.5394
  108POPC  H11A14356   5.873   4.374   2.651  0.6240  0.6320  0.2863
  108POPC  H11B14357   5.723   4.369   2.558 -0.0868  0.3142  0.1820
  108POPC     P14358   5.994   4.583   2.471  0.1306 -0.1542 -0.1629
  108POPC   O1314359   5.950   4.725   2.444  0.1351 -0.1581  0.1613
  108POPC   O1414360   6.106   4.533   2.386  0.1755  0.2510 -0.7861
  108POPC   O1214361   5.866   4.488   2.469 -0.2345 -0.4745 -0.3824
  108POPC   O1114362   6.043   4.580   2.623  0.0148  0.3017 -0.1070
  108POPC    C114363   6.175   4.536   2.665  0.3993 -0.6287  0.1019
  108POPC    HA14364   6.229   4.632   2.675 -3.6812  1.8016  1.0926
  108POPC    HB14365   6.226   4.461   2.601  1.6463  0.0272  0.3003
  108POPC    C214366   6.166   4.470   2.805 -0.2845 -0.6554  0.3880
  108POPC    HS14367   6.096   4.386   2.783 -0.6072 -0.3429  0.2201
  108POPC   O2114368   6.116   4.560   2.907  0.2296 -0.0911  0.3396
  108POPC   C2114369   6.029   4.510   2.991  0.4703 -1.5389  0.5140
  108POPC   O2214370   5.998   4.392   2.988  0.2275  0.6531 -0.3831
  108POPC   C2214371   5.959   4.625   3.079 -0.4469 -0.9395  0.3343
  108POPC   H2R14372   5.882   4.667   3.010 -0.5118 -0.0583  0.9248
  108POPC   H2S14373   6.018   4.718   3.092 -3.2377  0.9034  0.6366
  108POPC    C314374   6.293   4.394   2.842  0.2204 -0.1695 -0.5438
  108POPC    HX14375   6.372   4.471   2.854  0.6185 -0.5417 -0.7630
  108POPC    HY14376   6.336   4.327   2.765 -0.1447 -1.8686  0.6867
  108POPC   O3114377   6.282   4.328   2.974  0.0230  0.9698  0.3929
  108POPC   C3114378   6.219   4.211   2.961 -0.3384 -0.1745 -0.3399
  108POPC   O3214379   6.180   4.162   2.856 -0.2939  0.2767 -0.0900
  108POPC   C3214380   6.207   4.152   3.096 -0.3414  0.4959 -1.0959
  108POPC   H2X14381   6.181   4.234   3.166  0.6764  1.0403 -1.3329
  108POPC   H2Y14382   6.304   4.109   3.131 -1.6023 -0.6884  1.1939
  108POPC   C2314383   5.890   4.574   3.212  0.3081  0.0153 -0.1379
  108POPC   H3R14384   5.857   4.468   3.200  0.3645 -0.1099  0.7511
  108POPC   H3S14385   5.802   4.640   3.223 -0.4344 -1.0911  0.7812
  108POPC   C2414386   5.972   4.590   3.346  0.0107  0.6051 -0.2156
  108POPC   H4R14387   6.041   4.675   3.331 -0.3213  0.6051 -1.9165
  108POPC   H4S14388   6.032   4.497   3.354  0.6242  0.6602 -3.1809
  108POPC   C2514389   5.878   4.621   3.461  0.1144  0.0415  0.3003
  108POPC   H5R14390   5.789   4.555   3.457  1.9814 -2.6863  0.8219
  108POPC   H5S14391   5.834   4.721   3.439 -0.9947 -0.4121  0.3940
  108POPC   C2614392   5.927   4.611   3.604 -0.1718  0.5221 -1.1740
  108POPC   H6R14393   6.019   4.674   3.601  0.1393  0.0988 -0.5476
  108POPC   H6S14394   5.940   4.504   3.627 -1.9516  0.3739 -0.7161
  108POPC   C2714395   5.837   4.688   3.708  0.5377 -0.5499 -0.3680
  108POPC   H7R14396   5.736   4.644   3.696  1.6098 -3.6479  0.8880
  108POPC   H7S14397   5.839   4.798   3.701  1.5705 -0.1914  3.4294
  108POPC   C2814398   5.877   4.654   3.849 -0.0107  0.1099  0.2302
  108POPC   H8R14399   5.888   4.543   3.847  1.8561  0.2766 -0.1086
  108POPC   H8S14400   5.784   4.662   3.910  0.3394 -0.0809  0.7963
  108POPC   C2914401   6.000   4.724   3.907  0.2458  0.1817 -0.0682
  108POPC   H9114402   6.090   4.731   3.844 -0.6450 -0.8759 -1.5208
  108POPC  C21014403   6.014   4.792   4.028  0.6730 -0.1318  0.0573
  108POPC  H10114404   6.114   4.830   4.052 -0.8965  3.5796  1.3490
  108POPC  C21114405   5.913   4.826   4.138 -0.2558  0.3088 -0.8492
  108POPC  H11R14406   5.806   4.802   4.116 -0.6093  0.1413  0.9051
  108POPC  H11S14407   5.912   4.937   4.150 -3.6709  0.2746  0.5625
  108POPC  C21214408   5.951   4.766   4.274 -1.0929 -0.6028 -0.3461
  108POPC  H12R14409   5.964   4.656   4.268  0.7915 -0.3657 -1.5565
  108POPC  H12S14410   5.875   4.780   4.353  0.4648  0.7955  1.0076
  108POPC  C21314411   6.084   4.829   4.329  0.7035  0.0390  0.3827
  108POPC  H13R14412   6.068   4.937   4.348  0.6060 -0.0288  0.7046
  108POPC  H13S14413   6.166   4.808   4.257 -1.3042 -1.0143 -1.6877
  108POPC  C21414414   6.117   4.758   4.461  0.3831 -0.2763  0.6950
  108POPC  H14R14415   6.073   4.656   4.462 -0.8045  0.1959 -0.1069
  108POPC  H14S14416   6.067   4.813   4.544  0.2612 -1.3834  1.3872
  108POPC  C21514417   6.263   4.747   4.505 -0.2795 -0.0525 -0.3212
  108POPC  H15R14418   6.313   4.846   4.505  2.3936 -1.3228 -1.1660
  108POPC  H15S14419   6.315   4.679   4.435  2.9023  0.5967  1.2156
  108POPC  C21614420   6.280   4.684   4.646  0.0876 -0.0395  0.4763
  108POPC  H16R14421   6.254   4.576   4.643  0.6199 -0.1596 -0.4492
  108POPC  H16S14422   6.207   4.727   4.718 -1.0276 -1.7053  0.3945
  108POPC  C21714423   6.424   4.704   4.703  0.6863  0.5488  0.2311
  108POPC  H17R14424   6.450   4.810   4.724 -1.9667  1.6289 -1.4217
  108POPC  H17S14425   6.504   4.685   4.628 -0.1873  3.4249 -1.5780
  108POPC  C21814426   6.445   4.618   4.828  0.6309  0.3523  0.2478
  108POPC  H18R14427   6.411   4.512   4.814  0.2495  0.3384  1.1750
  108POPC  H18S14428   6.399   4.657   4.921  2.4287  0.2744  1.2170
  108POPC  H18T14429   6.555   4.618   4.842  0.9342 -1.3175 -1.6806
  108POPC   C3314430   6.101   4.040   3.107 -0.5620  0.1103 -0.4353
  108POPC   H3X14431   6.132   3.954   3.170  0.0627 -0.9710 -2.1581
  108POPC   H3Y14432   6.087   3.995   3.006  1.6187 -0.4616 -0.5182
  108POPC   C3414433   5.966   4.096   3.166  0.4660  0.5934  0.1902
  108POPC   H4X14434   5.908   4.002   3.179  1.7205  0.0214  2.1800
  108POPC   H4Y14435   5.914   4.158   3.091 -0.1938 -1.3199 -0.9844
  108POPC   C3514436   5.968   4.161   3.297 -0.1130 -0.0867  0.5618
  108POPC   H5X14437   6.028   4.255   3.300  0.7726 -0.6101 -0.0770
  108POPC   H5Y14438   6.029   4.098   3.365 -0.0457 -2.6065 -1.6786
  108POPC   C3614439   5.828   4.160   3.363  0.2857  0.0029 -0.2206
  108POPC   H6X14440   5.791   4.058   3.385  1.0850 -0.0285  1.0763
  108POPC   H6Y14441   5.762   4.204   3.284 -0.3794 -1.5993 -0.5908
  108POPC   C3714442   5.833   4.233   3.493  0.4865 -0.2937  0.0326
  108POPC   H7X14443   5.873   4.335   3.476 -0.7282  0.3718  1.0730
  108POPC   H7Y14444   5.909   4.181   3.555  1.8794  1.8266  0.1919
  108POPC   C3814445   5.694   4.236   3.562 -0.1032 -0.5467 -0.2738
  108POPC   H8X14446   5.661   4.139   3.604  0.3433 -0.8317 -0.5645
  108POPC   H8Y14447   5.611   4.267   3.495  1.1663  0.5934 -1.3833
  108POPC   C3914448   5.700   4.336   3.682  0.4683  0.0150 -0.4064
  108POPC   H9X14449   5.715   4.440   3.647 -1.0815  0.3781 -0.0427
  108POPC   H9Y14450   5.783   4.304   3.750 -0.8510 -1.7338  0.4661
  108POPC  C31014451   5.569   4.337   3.768  0.5768 -0.7906  1.0064
  108POPC  H10X14452   5.568   4.412   3.850 -1.9935  1.7173 -1.1134
  108POPC  H10Y14453   5.558   4.241   3.822  2.8763 -0.8935  1.4169
  108POPC  C31114454   5.440   4.351   3.682 -0.3648 -1.0030  0.5239
  108POPC  H11X14455   5.428   4.257   3.625 -0.1420 -0.4519 -0.4591
  108POPC  H11Y14456   5.454   4.433   3.608  2.1122 -2.7587 -1.0990
  108POPC  C31214457   5.318   4.374   3.778 -0.4444  0.2094  0.1699
  108POPC  H12X14458   5.347   4.449   3.854 -1.8593 -0.3192  1.2572
  108POPC  H12Y14459   5.293   4.279   3.829 -1.9390  0.8985  0.7526
  108POPC  C31314460   5.194   4.424   3.705 -0.6693  0.1976  0.1970
  108POPC  H13X14461   5.183   4.377   3.605 -1.6880  1.7264 -0.4435
  108POPC  H13Y14462   5.204   4.534   3.696 -3.7573  0.5563  0.1132
  108POPC  C31414463   5.070   4.398   3.795  0.1574  0.5378 -0.3250
  108POPC  H14X14464   5.093   4.415   3.902  1.8863 -1.1646 -0.3615
  108POPC  H14Y14465   5.048   4.289   3.784  2.8812 -0.0116 -1.2834
  108POPC  C31514466   4.948   4.480   3.757 -0.5523 -0.6041 -0.3362
  108POPC  H15X14467   4.868   4.446   3.826 -0.7096  0.0098 -0.2068
  108POPC  H15Y14468   4.910   4.463   3.653 -2.3237 -0.1684  0.2073
  108POPC  C31614469   4.957   4.627   3.778 -0.6294 -0.4311 -0.9488
  108POPC  H16X14470   4.861   4.676   3.752 -1.9322 -2.1885  0.3129
  108POPC  H16Y14471   5.037   4.671   3.716  0.7459 -0.4002  0.7751
  108POPC  H16Z14472   4.991   4.658   3.879  0.4274 -0.6184 -1.2408
  109POPC     N14473   4.893   1.440   1.919  0.1353 -0.4831 -0.7952
  109POPC   C1214474   4.932   1.429   2.070 -0.1559 -1.0061  0.1277
  109POPC  H12A14475   4.854   1.362   2.103 -3.3610  2.5259  0.4974
  109POPC  H12B14476   4.916   1.525   2.118  1.6148 -0.7812  0.3224
  109POPC   C1314477   4.964   1.557   1.857 -0.2317  0.3529  0.1863
  109POPC  H13A14478   4.917   1.652   1.877  1.1246  0.8707  1.0071
  109POPC  H13B14479   5.070   1.558   1.878 -0.0210  0.5855 -0.8309
  109POPC  H13C14480   4.944   1.552   1.751 -4.7972  0.2151  0.8316
  109POPC   C1414481   4.923   1.314   1.843  0.1536  0.6207  0.2421
  109POPC  H14A14482   4.898   1.338   1.741 -3.3850  0.6578  0.9833
  109POPC  H14B14483   5.029   1.296   1.846  0.0342 -0.7399 -1.8530
  109POPC  H14C14484   4.874   1.222   1.873  0.0087  0.9421  1.0406
  109POPC   C1514485   4.745   1.457   1.923 -0.0505 -0.1444 -0.0985
  109POPC  H15A14486   4.695   1.380   1.980  0.2756 -0.1477  0.1873
  109POPC  H15B14487   4.710   1.444   1.822  0.8395 -1.8842 -0.2208
  109POPC  H15C14488   4.712   1.546   1.975  0.0424 -0.8389  1.2049
  109POPC   C1114489   5.074   1.391   2.117 -0.3286  0.0369 -0.1924
  109POPC  H11A14490   5.082   1.408   2.226 -1.9026 -4.1455  0.7843
  109POPC  H11B14491   5.140   1.466   2.069 -0.9989  0.2588 -0.7862
  109POPC     P14492   5.039   1.135   2.141 -0.3662 -0.3343  0.2341
  109POPC   O1314493   5.124   1.070   2.239 -0.2032 -0.0408  0.0653
  109POPC   O1414494   5.011   1.054   2.016 -0.0685  1.0017 -0.6097
  109POPC   O1214495   5.120   1.260   2.092 -0.2084 -0.8978 -0.0504
  109POPC   O1114496   4.899   1.178   2.203  0.1636 -0.2348  0.0064
  109POPC    C114497   4.897   1.221   2.344 -0.1977 -0.7344  0.1819
  109POPC    HA14498   4.826   1.307   2.350  2.0115  1.0999  1.5510
  109POPC    HB14499   4.993   1.265   2.380 -1.6256  2.9367  0.0169
  109POPC    C214500   4.841   1.113   2.428 -1.0567  0.0673 -0.4324
  109POPC    HS14501   4.894   1.016   2.420 -0.1542  0.4942  0.1333
  109POPC   O2114502   4.703   1.105   2.398  0.0383 -0.1944  0.6633
  109POPC   C2114503   4.660   0.995   2.329  0.4893 -0.3315  1.0961
  109POPC   O2214504   4.738   0.918   2.280 -0.3592  0.1193  0.0766
  109POPC   C2214505   4.510   0.999   2.299 -0.4638  0.2856 -0.6007
  109POPC   H2R14506   4.496   0.946   2.203 -0.0535 -1.0470  0.0353
  109POPC   H2S14507   4.467   1.101   2.290 -0.5291  0.2187 -1.0755
  109POPC    C314508   4.849   1.155   2.582  0.6461  0.3325  0.0716
  109POPC    HX14509   4.781   1.080   2.629  0.5192  1.1971  1.3110
  109POPC    HY14510   4.800   1.252   2.602 -1.3633 -0.5175 -0.4156
  109POPC   O3114511   4.980   1.156   2.644 -0.0507  0.2480 -0.0234
  109POPC   C3114512   5.034   1.039   2.686  0.7263  0.4635 -0.1304
  109POPC   O3214513   4.982   0.930   2.678  0.0755 -0.2367  0.0240
  109POPC   C3214514   5.163   1.070   2.759 -0.4663 -0.1643  0.3329
  109POPC   H2X14515   5.188   1.177   2.748  0.4668  0.0091  3.3695
  109POPC   H2Y14516   5.245   1.020   2.702  0.3186  1.0650  0.3412
  109POPC   C2314517   4.412   0.927   2.404 -0.2083 -0.0632 -0.7266
  109POPC   H3R14518   4.455   0.826   2.420  1.9369  0.0125 -4.7553
  109POPC   H3S14519   4.307   0.918   2.367 -0.5960  0.0396  0.3116
  109POPC   C2414520   4.384   1.001   2.536 -0.1928  0.1084 -0.1851
  109POPC   H4R14521   4.348   1.102   2.508  0.3814  0.3639 -0.0182
  109POPC   H4S14522   4.475   1.002   2.599 -0.0228 -0.1687 -0.4247
  109POPC   C2514523   4.288   0.919   2.629 -0.2938 -0.3602  1.0808
  109POPC   H5R14524   4.341   0.826   2.659  0.8052 -0.1309 -0.0371
  109POPC   H5S14525   4.184   0.899   2.597  0.3139 -1.7576 -0.1811
  109POPC   C2614526   4.267   0.992   2.764  0.0681 -1.3359 -0.1474
  109POPC   H6R14527   4.233   1.095   2.745  1.4312 -0.5092  1.6390
  109POPC   H6S14528   4.367   0.992   2.812  0.2677 -1.3263 -0.5583
  109POPC   C2714529   4.169   0.904   2.853  0.0424 -0.4661 -0.2565
  109POPC   H7R14530   4.208   0.800   2.853  2.5630  0.3565  1.9085
  109POPC   H7S14531   4.063   0.904   2.821 -0.1444 -0.1206  0.3357
  109POPC   C2814532   4.159   0.950   3.004  0.1788  0.3250  0.7309
  109POPC   H8R14533   4.053   0.933   3.033 -1.0021 -1.6456 -3.8454
  109POPC   H8S14534   4.189   1.057   3.011  1.3728  0.0308  0.3519
  109POPC   C2914535   4.255   0.873   3.088 -1.0523 -0.3869  0.1497
  109POPC   H9114536   4.347   0.834   3.042 -1.2825  0.3977 -1.0062
  109POPC  C21014537   4.236   0.846   3.220  0.6857  0.1081 -0.1750
  109POPC  H10114538   4.320   0.790   3.263  1.0998 -0.0409 -1.1567
  109POPC  C21114539   4.113   0.879   3.311 -0.9178  0.1638 -0.4115
  109POPC  H11R14540   4.052   0.962   3.269 -1.0238  1.5315  2.2371
  109POPC  H11S14541   4.147   0.910   3.412  0.6363 -0.0809 -0.8411
  109POPC  C21214542   4.024   0.757   3.324  0.8313 -0.0181 -0.5568
  109POPC  H12R14543   3.979   0.720   3.230 -0.7337 -1.1089  0.5559
  109POPC  H12S14544   3.945   0.789   3.396  1.3164  1.9111 -0.8320
  109POPC  C21314545   4.087   0.630   3.390 -1.3061  0.5218  0.3453
  109POPC  H13R14546   4.164   0.592   3.319 -1.7924  1.9612 -1.0006
  109POPC  H13S14547   4.011   0.551   3.409 -0.7832  0.1381  0.9027
  109POPC  C21414548   4.151   0.668   3.533  0.1642 -0.1056 -0.0889
  109POPC  H14R14549   4.071   0.718   3.592 -0.1067 -0.0544 -0.4997
  109POPC  H14S14550   4.234   0.740   3.524 -0.4123  0.6914  0.7673
  109POPC  C21514551   4.200   0.540   3.613 -0.2364  0.1591  0.3340
  109POPC  H15R14552   4.270   0.489   3.543 -0.8108  0.7391 -0.6939
  109POPC  H15S14553   4.113   0.472   3.619  0.5692 -1.0337 -0.8363
  109POPC  C21614554   4.273   0.570   3.748  0.3514  0.0029  0.1850
  109POPC  H16R14555   4.197   0.632   3.799  0.1787 -0.0245 -0.0416
  109POPC  H16S14556   4.366   0.630   3.739 -0.2065  0.9055  0.3058
  109POPC  C21714557   4.305   0.441   3.834  0.5826 -0.1804 -0.0764
  109POPC  H17R14558   4.399   0.393   3.798  0.6474 -1.2379  1.3908
  109POPC  H17S14559   4.227   0.363   3.821  0.0737 -0.0657  1.9202
  109POPC  C21814560   4.326   0.472   3.986 -0.2214  0.2840 -0.1160
  109POPC  H18R14561   4.232   0.517   4.024 -0.5709  0.6654 -1.3924
  109POPC  H18S14562   4.407   0.546   4.005 -0.1000  0.1852 -0.2484
  109POPC  H18T14563   4.354   0.385   4.050  0.5080  1.2933  0.9883
  109POPC   C3314564   5.175   1.037   2.909 -0.7038 -0.2928 -0.6699
  109POPC   H3X14565   5.078   1.056   2.960  0.0894  0.3178  0.6704
  109POPC   H3Y14566   5.253   1.094   2.963 -0.0660 -0.8721 -0.9648
  109POPC   C3414567   5.199   0.892   2.936 -0.4308  1.0623 -0.2159
  109POPC   H4X14568   5.136   0.828   2.870  0.9522  1.0383 -1.5565
  109POPC   H4Y14569   5.169   0.867   3.041  0.3902 -1.5746 -0.5239
  109POPC   C3514570   5.343   0.842   2.916  0.0557  0.6321  0.2285
  109POPC   H5X14571   5.423   0.919   2.923  0.4803  0.0524  3.6028
  109POPC   H5Y14572   5.340   0.811   2.810 -1.7604 -0.9525  0.6756
  109POPC   C3614573   5.373   0.727   3.009  0.2180 -0.4486  0.7901
  109POPC   H6X14574   5.280   0.671   3.030  0.0773 -0.3053  0.5528
  109POPC   H6Y14575   5.398   0.761   3.111 -1.5791 -0.6465  1.3295
  109POPC   C3714576   5.482   0.640   2.939 -0.0429  0.0041  0.4368
  109POPC   H7X14577   5.580   0.692   2.933 -0.5732  0.9185 -4.4240
  109POPC   H7Y14578   5.454   0.621   2.833 -1.9404  1.8776  0.5244
  109POPC   C3814579   5.498   0.506   3.004 -0.3295  0.7717 -0.3377
  109POPC   H8X14580   5.515   0.519   3.114 -0.6359  0.6719 -0.2783
  109POPC   H8Y14581   5.593   0.467   2.961 -0.8289 -2.1078  0.8968
  109POPC   C3914582   5.389   0.396   2.974 -0.5908  0.3038  0.1773
  109POPC   H9X14583   5.295   0.446   2.944  0.3505  1.5066 -0.8738
  109POPC   H9Y14584   5.368   0.323   3.055 -0.3932  1.7445  1.5624
  109POPC  C31014585   5.436   0.310   2.850  0.3001  0.3128  0.3099
  109POPC  H10X14586   5.519   0.241   2.878 -0.3380 -1.1676 -1.2276
  109POPC  H10Y14587   5.458   0.381   2.768 -0.1818 -2.1765 -2.1322
  109POPC  C31114588   5.329   0.215   2.795 -0.2865  0.3325 -0.0654
  109POPC  H11X14589   5.338   0.197   2.686 -0.9969 -0.6276  0.0213
  109POPC  H11Y14590   5.233   0.270   2.803 -0.7478 -0.6212  1.3295
  109POPC  C31214591   5.321   0.079   2.870 -0.0529  0.8273 -0.1400
  109POPC  H12X14592   5.231   0.018   2.846  0.1665 -0.5012  2.1067
  109POPC  H12Y14593   5.333   0.096   2.979 -0.2812 -1.0675  0.2093
  109POPC  C31314594   5.434  -0.026   2.838  0.3944 -0.0125  0.8103
  109POPC  H13X14595   5.527   0.033   2.821 -1.0034  1.8503 -0.7850
  109POPC  H13Y14596   5.410  -0.074   2.741 -0.2589  1.0802  0.4233
  109POPC  C31414597   5.443  -0.124   2.947  0.4124  0.9642  0.0867
  109POPC  H14X14598   5.453  -0.223   2.898 -0.4471  1.0561 -0.2909
  109POPC  H14Y14599   5.359  -0.117   3.019 -0.2528  1.2230 -0.7011
  109POPC  C31514600   5.566  -0.086   3.028 -0.0408 -0.4760  0.4920
  109POPC  H15X14601   5.549   0.017   3.066  1.1324  0.2444 -0.8197
  109POPC  H15Y14602   5.645  -0.091   2.950 -1.4442  2.4753 -1.3232
  109POPC  C31614603   5.585  -0.195   3.135 -0.6033  0.6458  0.4680
  109POPC  H16X14604   5.566  -0.293   3.085  0.1895  1.0491 -0.6677
  109POPC  H16Y14605   5.534  -0.178   3.232  2.0917 -3.9234  3.0390
  109POPC  H16Z14606   5.693  -0.197   3.162 -0.3112  0.2099 -0.6532
  110POPC     N14607   2.625   3.691   1.881 -0.3337  0.0156  0.3409
  110POPC   C1214608   2.747   3.733   1.956 -0.2309 -0.1258 -0.5759
  110POPC  H12A14609   2.718   3.829   1.996  1.1797  1.0544 -2.2191
  110POPC  H12B14610   2.831   3.757   1.892  1.4713  0.8189  1.8263
  110POPC   C1314611   2.638   3.563   1.806 -0.1434 -0.1144 -0.7451
  110POPC  H13A14612   2.712   3.558   1.727 -0.3692 -1.8961 -0.8940
  110POPC  H13B14613   2.657   3.482   1.875  0.7180 -1.8580 -2.8874
  110POPC  H13C14614   2.542   3.540   1.762 -0.7676  0.6664  0.1944
  110POPC   C1414615   2.511   3.695   1.982 -0.1342 -0.7620 -0.8678
  110POPC  H14A14616   2.522   3.615   2.053  1.3479  0.5920  0.5045
  110POPC  H14B14617   2.524   3.787   2.038  0.2037  0.1395 -2.3677
  110POPC  H14C14618   2.414   3.694   1.934 -0.9683 -2.8820  0.7203
  110POPC   C1514619   2.590   3.793   1.768 -0.0296 -0.9295 -0.3605
  110POPC  H15A14620   2.502   3.767   1.710 -0.2381  0.0205 -0.4905
  110POPC  H15B14621   2.673   3.809   1.700  0.2089  0.2814  0.1872
  110POPC  H15C14622   2.559   3.882   1.822  1.3190 -1.6174  1.6436
  110POPC   C1114623   2.817   3.632   2.064  0.6393  0.1808 -0.1084
  110POPC  H11A14624   2.753   3.647   2.154 -0.0487  0.1683 -0.5825
  110POPC  H11B14625   2.917   3.681   2.072  0.0749  1.4442 -0.4325
  110POPC     P14626   2.951   3.409   2.009  0.3341  0.1208 -0.1519
  110POPC   O1314627   3.036   3.468   1.912 -0.5455 -0.2524  0.4725
  110POPC   O1414628   2.906   3.271   1.971  0.5312  0.1120  0.1128
  110POPC   O1214629   2.815   3.497   2.023 -0.4084 -0.4487 -0.4268
  110POPC   O1114630   3.022   3.402   2.151 -0.7909 -0.3343 -0.5247
  110POPC    C114631   2.952   3.411   2.270  0.5758  0.3740  0.7095
  110POPC    HA14632   2.864   3.477   2.258  0.9065  0.4755 -1.5494
  110POPC    HB14633   3.016   3.462   2.345 -0.3968  1.3830  0.8879
  110POPC    C214634   2.925   3.266   2.331 -0.4327  0.4485 -0.0641
  110POPC    HS14635   2.865   3.211   2.255  1.6562  0.7361 -2.0220
  110POPC   O2114636   2.857   3.275   2.456 -0.2740 -0.6576  0.2490
  110POPC   C2114637   2.766   3.185   2.477  0.3929  0.2558 -0.4219
  110POPC   O2214638   2.730   3.096   2.402  0.0396 -0.5083  0.3163
  110POPC   C2214639   2.746   3.201   2.634  0.6336 -0.3805 -0.7718
  110POPC   H2R14640   2.713   3.305   2.656  1.5952 -0.2859  0.2525
  110POPC   H2S14641   2.838   3.180   2.691 -0.8828 -3.1520  0.8471
  110POPC    C314642   3.056   3.194   2.350 -0.5586 -0.6837 -0.3318
  110POPC    HX14643   3.109   3.265   2.417 -0.3079 -0.7917 -0.4130
  110POPC    HY14644   3.110   3.180   2.254  0.2477  0.3363 -0.0455
  110POPC   O3114645   3.033   3.068   2.423  0.3172  0.1641 -0.0136
  110POPC   C3114646   3.101   3.048   2.532  0.2746 -0.3252 -0.6055
  110POPC   O3214647   3.171   3.129   2.592  0.1042  0.2686  0.0157
  110POPC   C3214648   3.073   2.902   2.556 -0.6715  0.3213 -0.7808
  110POPC   H2X14649   3.124   2.847   2.474  1.7193  0.2988  0.6472
  110POPC   H2Y14650   2.965   2.886   2.535 -0.8808  3.2671 -2.5394
  110POPC   C2314651   2.634   3.103   2.691 -0.3004 -0.4652 -0.2294
  110POPC   H3R14652   2.663   3.000   2.661  0.8638 -0.8542  2.0579
  110POPC   H3S14653   2.536   3.129   2.645  0.9761 -0.0305 -2.9224
  110POPC   C2414654   2.614   3.097   2.844 -0.1224  0.1712  0.5284
  110POPC   H4R14655   2.576   3.190   2.890 -1.4547  0.3663 -0.8783
  110POPC   H4S14656   2.710   3.079   2.898 -0.2046  0.8315  0.9000
  110POPC   C2514657   2.527   2.985   2.896 -0.0283  0.0372 -1.0334
  110POPC   H5R14658   2.577   2.888   2.872  0.0603  0.1399 -1.2620
  110POPC   H5S14659   2.432   2.992   2.839 -1.2078 -1.7009  0.6088
  110POPC   C2614660   2.507   2.991   3.049 -0.1006 -0.4234  0.4911
  110POPC   H6R14661   2.602   3.015   3.101 -0.3024 -1.0597  1.1612
  110POPC   H6S14662   2.484   2.888   3.086  0.1462 -0.4800  0.4864
  110POPC   C2714663   2.393   3.080   3.093 -0.1565 -0.4675  0.2720
  110POPC   H7R14664   2.306   3.084   3.024  0.3919 -2.2084 -0.5638
  110POPC   H7S14665   2.446   3.178   3.088 -0.6886 -0.2221 -1.5890
  110POPC   C2814666   2.349   3.056   3.236  0.2447 -0.2310  0.1533
  110POPC   H8R14667   2.438   3.057   3.301 -0.3217  0.0106  0.9365
  110POPC   H8S14668   2.316   2.950   3.241  0.7546 -0.4527 -0.8338
  110POPC   C2914669   2.246   3.151   3.282  0.0570 -0.0370  0.1297
  110POPC   H9114670   2.140   3.145   3.253 -0.5174  2.6224  1.3210
  110POPC  C21014671   2.276   3.261   3.358  0.1153 -0.2893  0.4703
  110POPC  H10114672   2.183   3.300   3.403 -0.7430 -1.1827 -0.4720
  110POPC  C21114673   2.407   3.298   3.421 -0.4346 -0.3225  0.2646
  110POPC  H11R14674   2.482   3.218   3.437  0.1566  0.1629 -0.0275
  110POPC  H11S14675   2.367   3.333   3.519  0.0503  2.1539 -0.3481
  110POPC  C21214676   2.482   3.410   3.352 -0.8059 -0.4472  0.1891
  110POPC  H12R14677   2.510   3.396   3.245 -0.5276 -1.1595  0.3464
  110POPC  H12S14678   2.583   3.418   3.397 -1.1226 -1.5135  1.1571
  110POPC  C21314679   2.407   3.543   3.361  0.2563 -0.2286  0.5875
  110POPC  H13R14680   2.486   3.621   3.349 -0.5847  0.6317  0.4900
  110POPC  H13S14681   2.361   3.558   3.461 -2.2940  1.7821 -0.7685
  110POPC  C21414682   2.292   3.557   3.255 -0.4320 -0.1870 -0.5490
  110POPC  H14R14683   2.203   3.497   3.284  0.7266 -0.5074  2.8700
  110POPC  H14S14684   2.333   3.536   3.154  1.3979  4.0371 -0.9016
  110POPC  C21514685   2.240   3.701   3.253 -0.5584  0.3982  0.0036
  110POPC  H15R14686   2.325   3.772   3.257 -0.0086 -0.2364 -0.2251
  110POPC  H15S14687   2.198   3.728   3.352  0.0576  1.6468 -0.0560
  110POPC  C21614688   2.131   3.736   3.150  0.1657 -0.4175 -0.0928
  110POPC  H16R14689   2.047   3.664   3.157  0.1849 -0.3113  1.7408
  110POPC  H16S14690   2.168   3.741   3.045 -0.5220 -1.5335 -0.3986
  110POPC  C21714691   2.075   3.883   3.180  0.4495  0.2381  0.1308
  110POPC  H17R14692   2.154   3.958   3.162  0.4916  0.3741  0.8460
  110POPC  H17S14693   2.038   3.889   3.285  2.3292 -0.3031  0.8617
  110POPC  C21814694   1.952   3.911   3.090 -0.5393  0.0365  0.1002
  110POPC  H18R14695   1.954   4.021   3.075  0.1970 -0.1265 -1.1449
  110POPC  H18S14696   1.853   3.876   3.124 -0.7050 -0.5157 -0.9064
  110POPC  H18T14697   1.975   3.863   2.992  2.0492 -3.6024  2.2250
  110POPC   C3314698   3.107   2.854   2.694 -0.8596 -0.0763 -0.0876
  110POPC   H3X14699   3.207   2.896   2.718  0.0191 -0.8213 -2.2609
  110POPC   H3Y14700   3.115   2.743   2.686 -0.0590 -0.0849  0.6720
  110POPC   C3414701   3.004   2.902   2.791 -0.1993  0.2256 -0.0977
  110POPC   H4X14702   2.932   2.820   2.811  1.5674 -0.9635  1.7545
  110POPC   H4Y14703   2.954   2.998   2.766 -0.9168  0.1369  0.9718
  110POPC   C3514704   3.070   2.927   2.927 -0.2899 -0.5974  0.0397
  110POPC   H5X14705   3.144   3.010   2.937  0.2216 -0.9182 -1.0434
  110POPC   H5Y14706   3.119   2.835   2.962 -1.4430 -0.2433  2.9229
  110POPC   C3614707   2.966   2.972   3.034 -0.2940 -0.2048  0.6246
  110POPC   H6X14708   2.909   3.061   3.000 -0.9095 -0.0590  1.9963
  110POPC   H6Y14709   3.019   3.013   3.122  0.0845 -2.4973  1.5339
  110POPC   C3714710   2.868   2.859   3.082  0.3528 -0.3029  0.2211
  110POPC   H7X14711   2.910   2.764   3.043 -1.1619 -0.4817 -1.0872
  110POPC   H7Y14712   2.770   2.883   3.035 -0.3082  1.5754  2.4066
  110POPC   C3814713   2.838   2.846   3.227 -0.4225  0.4394  0.1951
  110POPC   H8X14714   2.825   2.940   3.284  2.9108  0.1917  1.5783
  110POPC   H8Y14715   2.931   2.809   3.275  0.1625  1.5594 -0.0457
  110POPC   C3914716   2.714   2.765   3.277  0.1811 -0.0465  0.6771
  110POPC   H9X14717   2.725   2.670   3.222  0.8338 -0.3238  1.2717
  110POPC   H9Y14718   2.625   2.818   3.236  0.7421  0.4574  0.1008
  110POPC  C31014719   2.695   2.759   3.437 -0.3547  0.4399  0.8269
  110POPC  H10X14720   2.687   2.864   3.470 -0.5131  0.8713 -0.5267
  110POPC  H10Y14721   2.794   2.717   3.466 -1.2586 -1.6717  1.0434
  110POPC  C31114722   2.576   2.671   3.473 -0.2407  0.2745 -0.7266
  110POPC  H11X14723   2.487   2.698   3.413  0.3170  0.7277 -1.3578
  110POPC  H11Y14724   2.550   2.687   3.580 -1.6914  0.5408 -1.1022
  110POPC  C31214725   2.591   2.518   3.457  0.7993 -0.5271 -0.1841
  110POPC  H12X14726   2.638   2.486   3.361 -1.6569 -1.1331 -1.2868
  110POPC  H12Y14727   2.492   2.466   3.451  0.1258  0.5927  0.8043
  110POPC  C31314728   2.674   2.460   3.570 -0.0198 -0.0332  0.6474
  110POPC  H13X14729   2.633   2.495   3.668  0.1156 -2.6487  1.7050
  110POPC  H13Y14730   2.776   2.502   3.558 -0.6311  2.0046  1.9818
  110POPC  C31414731   2.672   2.306   3.566 -0.6169  1.1595  0.4718
  110POPC  H14X14732   2.646   2.283   3.460 -1.9674  0.5820  0.9155
  110POPC  H14Y14733   2.589   2.275   3.633 -0.3284 -0.0327  0.3007
  110POPC  C31514734   2.808   2.259   3.607  0.5293 -0.5523  0.3242
  110POPC  H15X14735   2.847   2.316   3.694  0.6596  0.4553 -0.3832
  110POPC  H15Y14736   2.887   2.272   3.530  1.0782  0.9019  1.0876
  110POPC  C31614737   2.800   2.113   3.636 -0.1487 -0.9316 -0.3700
  110POPC  H16X14738   2.719   2.080   3.705 -1.8771 -0.0111 -1.8521
  110POPC  H16Y14739   2.887   2.082   3.696 -1.3939 -1.7179  1.0887
  110POPC  H16Z14740   2.786   2.042   3.552 -2.2493 -2.4144  1.1378
  111POPC     N14741   3.572   7.913   1.194 -0.3917  0.3710  0.3596
  111POPC   C1214742   3.607   7.939   1.336  0.5215  0.1016 -0.7198
  111POPC  H12A14743   3.593   8.044   1.352 -0.7006 -0.4875  2.9863
  111POPC  H12B14744   3.713   7.923   1.347  0.4780 -0.1153 -0.6100
  111POPC   C1314745   3.678   7.975   1.105  0.1749 -0.5098 -0.7628
  111POPC  H13A14746   3.770   7.918   1.108  1.7046  1.8435 -0.0999
  111POPC  H13B14747   3.641   7.998   1.006  0.0315 -1.2929 -0.8972
  111POPC  H13C14748   3.692   8.076   1.141  0.1628 -0.5604 -0.6160
  111POPC   C1414749   3.583   7.769   1.173 -0.1578 -0.5419  0.0035
  111POPC  H14A14750   3.514   7.712   1.234 -0.1533  0.6556  1.1551
  111POPC  H14B14751   3.570   7.750   1.068 -1.9289 -2.2246  0.4431
  111POPC  H14C14752   3.681   7.731   1.198  0.3452  0.6911 -0.0354
  111POPC   C1514753   3.432   7.957   1.154 -0.2617  0.8785 -0.0716
  111POPC  H15A14754   3.367   7.911   1.226  0.4181  0.3228  0.1938
  111POPC  H15B14755   3.416   7.920   1.054  0.4016 -0.3248  0.2539
  111POPC  H15C14756   3.418   8.064   1.161  1.9989  1.1510  1.4310
  111POPC   C1114757   3.527   7.872   1.449 -0.0499 -0.0253  0.4055
  111POPC  H11A14758   3.578   7.899   1.544 -0.5232  0.6082  0.4872
  111POPC  H11B14759   3.538   7.762   1.445  3.2417  0.2472 -0.7226
  111POPC     P14760   3.336   8.027   1.531  0.1659 -0.3255 -0.5466
  111POPC   O1314761   3.191   8.019   1.544 -0.1712 -0.0781 -0.4041
  111POPC   O1414762   3.391   8.155   1.468  0.5505 -0.6388 -0.2001
  111POPC   O1214763   3.388   7.903   1.455 -0.2480  0.1495  0.1713
  111POPC   O1114764   3.394   7.996   1.675 -0.0975  0.2756  0.7001
  111POPC    C114765   3.382   7.860   1.724  0.1056 -0.2852 -0.0474
  111POPC    HA14766   3.449   7.797   1.663 -0.6992  0.6448 -1.9665
  111POPC    HB14767   3.278   7.819   1.720  0.2043 -0.4983 -3.6759
  111POPC    C214768   3.426   7.836   1.870 -0.5752 -0.0057 -0.0870
  111POPC    HS14769   3.503   7.910   1.899 -0.9597  0.6603 -0.7227
  111POPC   O2114770   3.473   7.701   1.868  0.0124  0.0298 -0.1386
  111POPC   C2114771   3.569   7.666   1.951 -0.1057 -0.0409  0.3315
  111POPC   O2214772   3.629   7.738   2.029 -0.4297  0.6666  0.1361
  111POPC   C2214773   3.608   7.520   1.924 -0.3591  0.6068 -0.8497
  111POPC   H2R14774   3.691   7.513   1.850 -0.4474 -2.0296 -0.8119
  111POPC   H2S14775   3.526   7.451   1.894 -0.2952  0.5318 -0.8534
  111POPC    C314776   3.322   7.852   1.986  0.4548 -0.4739  0.1368
  111POPC    HX14777   3.243   7.774   1.973 -0.5521  0.3723  0.9865
  111POPC    HY14778   3.254   7.939   1.981  0.0108 -0.8154  0.1763
  111POPC   O3114779   3.380   7.840   2.118  0.3592 -0.4733 -0.5687
  111POPC   C3114780   3.415   7.958   2.175 -0.0964  0.7440 -0.2321
  111POPC   O3214781   3.412   8.069   2.124 -0.4220 -0.0927 -0.1924
  111POPC   C3214782   3.457   7.932   2.320  0.3124 -0.1841  0.6903
  111POPC   H2X14783   3.558   7.887   2.328 -0.7223 -2.6320  0.7303
  111POPC   H2Y14784   3.391   7.849   2.351  1.9467 -1.1689  1.6714
  111POPC   C2314785   3.667   7.459   2.058  0.1156 -0.1849  0.0697
  111POPC   H3R14786   3.749   7.520   2.101  0.6270 -1.8805  1.6155
  111POPC   H3S14787   3.707   7.357   2.037 -1.0178 -0.8023  0.7686
  111POPC   C2414788   3.552   7.450   2.162  0.6588 -0.0411  0.0019
  111POPC   H4R14789   3.469   7.393   2.117  0.1003  0.7518  0.0133
  111POPC   H4S14790   3.516   7.554   2.173 -0.5071 -0.2832 -1.2584
  111POPC   C2514791   3.584   7.382   2.289  0.4975 -0.2788  0.7464
  111POPC   H5R14792   3.656   7.434   2.355 -0.1027  0.8702  0.5086
  111POPC   H5S14793   3.640   7.291   2.256  0.6814  0.4734 -1.1410
  111POPC   C2614794   3.454   7.348   2.368 -0.2227  0.2083 -0.6895
  111POPC   H6R14795   3.461   7.251   2.421  1.5850  1.6480  1.9667
  111POPC   H6S14796   3.373   7.344   2.291 -2.4486  0.4708  1.5119
  111POPC   C2714797   3.404   7.452   2.470 -0.1425 -0.4174 -0.0120
  111POPC   H7R14798   3.381   7.548   2.418 -2.8138 -2.0355 -2.1415
  111POPC   H7S14799   3.476   7.468   2.552  1.4868  1.7701 -1.7367
  111POPC   C2814800   3.278   7.404   2.549 -0.3660 -0.7128  0.0465
  111POPC   H8R14801   3.306   7.307   2.597  1.0692  0.3664  1.4844
  111POPC   H8S14802   3.200   7.395   2.470 -0.3127 -1.4721  0.0663
  111POPC   C2914803   3.239   7.510   2.643 -0.8959  0.1985 -0.2010
  111POPC   H9114804   3.296   7.604   2.632 -0.9525  0.0821 -1.8545
  111POPC  C21014805   3.148   7.503   2.738 -0.0582 -0.5017  0.1335
  111POPC  H10114806   3.129   7.589   2.803 -0.3890  0.5359 -1.2878
  111POPC  C21114807   3.051   7.392   2.762 -0.3184 -0.4039 -0.7434
  111POPC  H11R14808   3.054   7.357   2.867 -0.1729  1.3379 -0.1381
  111POPC  H11S14809   3.078   7.309   2.693  1.1284  0.2917 -1.0760
  111POPC  C21214810   2.918   7.456   2.728  0.4667  0.3316  0.0131
  111POPC  H12R14811   2.919   7.486   2.621  2.0843  1.3155  0.2573
  111POPC  H12S14812   2.892   7.543   2.792  0.1103 -0.2068  0.6180
  111POPC  C21314813   2.803   7.359   2.754  0.8059  0.3644 -0.8937
  111POPC  H13R14814   2.817   7.265   2.696 -0.2853 -0.6085  0.3527
  111POPC  H13S14815   2.711   7.402   2.709  0.7197  0.9420 -0.1839
  111POPC  C21414816   2.781   7.335   2.907 -0.5264  0.4821  0.4281
  111POPC  H14R14817   2.755   7.434   2.950  2.8830  1.2568  0.9662
  111POPC  H14S14818   2.873   7.303   2.960  0.5983  2.3328 -0.3327
  111POPC  C21514819   2.661   7.241   2.928 -0.3484  0.3821  0.6542
  111POPC  H15R14820   2.674   7.142   2.879 -1.0304  0.6167 -0.0234
  111POPC  H15S14821   2.568   7.283   2.884 -1.4162 -1.6644  0.8365
  111POPC  C21614822   2.630   7.212   3.072  0.0590 -0.0737 -0.0895
  111POPC  H16R14823   2.714   7.161   3.122  0.1578  0.7670  0.6215
  111POPC  H16S14824   2.540   7.146   3.066 -0.8897  1.1521  0.2709
  111POPC  C21714825   2.587   7.337   3.145  0.2978 -0.2722  0.2477
  111POPC  H17R14826   2.526   7.402   3.079 -1.0675  0.2483  1.9441
  111POPC  H17S14827   2.677   7.394   3.176 -0.3909  0.2865  1.2699
  111POPC  C21814828   2.509   7.319   3.273 -0.9901  0.2462 -0.3302
  111POPC  H18R14829   2.523   7.403   3.343  0.6224  0.6202 -1.0588
  111POPC  H18S14830   2.536   7.223   3.321 -3.5630 -0.7890 -0.7312
  111POPC  H18T14831   2.404   7.309   3.237 -0.5604  0.3333 -1.6527
  111POPC   C3314832   3.432   8.065   2.400  0.3371 -0.0119 -0.0562
  111POPC   H3X14833   3.330   8.107   2.390  0.7316  0.6771 -1.3977
  111POPC   H3Y14834   3.497   8.150   2.372 -0.6422  0.3816 -1.1879
  111POPC   C3414835   3.470   8.032   2.540 -0.5011  0.2113 -0.2547
  111POPC   H4X14836   3.486   8.132   2.587 -0.5241  0.2998 -0.4348
  111POPC   H4Y14837   3.564   7.974   2.537  0.4420  1.7378 -3.0911
  111POPC   C3514838   3.362   7.965   2.625 -0.4885 -0.2387 -1.1282
  111POPC   H5X14839   3.399   7.988   2.727  1.4804 -0.4910 -1.7463
  111POPC   H5Y14840   3.352   7.855   2.612 -1.3166 -0.3502  0.2350
  111POPC   C3614841   3.226   8.044   2.619 -0.2054  0.6222  0.4422
  111POPC   H6X14842   3.168   8.054   2.525 -0.4406 -0.9520  0.3906
  111POPC   H6Y14843   3.242   8.148   2.654  0.4780  0.5392  0.4040
  111POPC   C3714844   3.118   7.993   2.720 -0.1494  0.2666 -0.4212
  111POPC   H7X14845   3.174   7.962   2.810  0.8962  0.2779 -1.0486
  111POPC   H7Y14846   3.084   7.894   2.680  1.1187 -1.2990  2.1244
  111POPC   C3814847   3.013   8.095   2.758 -0.7411 -0.2001  0.3926
  111POPC   H8X14848   2.974   8.123   2.658 -1.0193 -1.3121  0.1728
  111POPC   H8Y14849   3.057   8.184   2.809 -2.5640 -0.3471  2.3755
  111POPC   C3914850   2.910   8.037   2.855  0.0037  0.2533 -0.5255
  111POPC   H9X14851   2.840   8.118   2.886 -0.2409 -0.4987  0.9394
  111POPC   H9Y14852   2.963   8.005   2.947 -1.0018  0.8191  0.2543
  111POPC  C31014853   2.828   7.918   2.800  0.2963  0.2858  0.6836
  111POPC  H10X14854   2.893   7.830   2.779 -0.3572 -0.3297  1.2367
  111POPC  H10Y14855   2.762   7.950   2.717 -1.4105 -0.2608  1.7926
  111POPC  C31114856   2.721   7.872   2.901 -0.0462 -0.2237 -0.1210
  111POPC  H11X14857   2.649   7.957   2.909  1.7755  1.4123 -0.2311
  111POPC  H11Y14858   2.768   7.854   2.999  1.0061  0.9362 -0.3894
  111POPC  C31214859   2.636   7.755   2.838 -0.4256 -0.1506 -0.1273
  111POPC  H12X14860   2.572   7.714   2.920  0.7392  0.4396  1.1211
  111POPC  H12Y14861   2.708   7.675   2.807 -0.1317 -0.0993  0.4000
  111POPC  C31314862   2.559   7.797   2.707  0.4137 -0.0491  0.0576
  111POPC  H13X14863   2.626   7.813   2.619  0.4354  0.0423  0.0906
  111POPC  H13Y14864   2.484   7.879   2.714 -1.4506 -1.4850 -1.6835
  111POPC  C31414865   2.465   7.669   2.678  0.3340  0.1741 -0.8384
  111POPC  H14X14866   2.394   7.659   2.763  0.9248 -2.7885 -0.5520
  111POPC  H14Y14867   2.531   7.580   2.688 -1.2182 -0.7500  3.8204
  111POPC  C31514868   2.399   7.688   2.542  0.3090 -0.1351 -0.8092
  111POPC  H15X14869   2.478   7.692   2.464  0.1539 -1.6840 -1.0853
  111POPC  H15Y14870   2.341   7.782   2.532 -1.3642 -1.1242 -0.7870
  111POPC  C31614871   2.304   7.570   2.505  0.5533 -0.2657 -0.2469
  111POPC  H16X14872   2.211   7.578   2.564  1.0616 -0.6152  0.6226
  111POPC  H16Y14873   2.356   7.477   2.535 -1.7544 -2.1685 -1.8492
  111POPC  H16Z14874   2.285   7.573   2.396  0.4844  0.2702 -0.2264
  112POPC     N14875   5.563   1.955   1.773  0.1554  0.5003  0.2969
  112POPC   C1214876   5.475   1.996   1.885  0.2265 -0.2218 -0.3041
  112POPC  H12A14877   5.540   1.992   1.971  0.4810 -0.8895 -0.5238
  112POPC  H12B14878   5.403   1.917   1.897 -0.7566  0.4461 -1.4543
  112POPC   C1314879   5.500   1.987   1.639 -0.0407  0.0814 -0.2499
  112POPC  H13A14880   5.545   1.942   1.552 -0.6836 -3.4640  1.0608
  112POPC  H13B14881   5.395   1.962   1.637  0.0869 -0.4242 -0.8448
  112POPC  H13C14882   5.502   2.094   1.624 -1.4797  0.0542 -0.8256
  112POPC   C1414883   5.696   2.028   1.783  0.3677  0.1791 -1.1919
  112POPC  H14A14884   5.671   2.131   1.803 -0.6265 -0.4799  1.3153
  112POPC  H14B14885   5.759   1.998   1.865  0.1352  0.6671 -0.8343
  112POPC  H14C14886   5.747   2.035   1.688  1.2990 -1.5991 -0.8617
  112POPC   C1514887   5.588   1.806   1.769 -0.0188  0.0216  0.0533
  112POPC  H15A14888   5.496   1.753   1.745 -1.0424  1.4244  0.7387
  112POPC  H15B14889   5.621   1.767   1.864 -2.1694  2.2416  1.8348
  112POPC  H15C14890   5.664   1.794   1.694  0.9049  0.6755  0.8666
  112POPC   C1114891   5.407   2.138   1.877 -0.0055 -0.0030 -0.1536
  112POPC  H11A14892   5.336   2.151   1.961 -0.8960  3.3861 -1.2824
  112POPC  H11B14893   5.352   2.128   1.781  1.5551  1.9135 -1.3246
  112POPC     P14894   5.561   2.309   2.002  0.1692  0.0517  0.3616
  112POPC   O1314895   5.486   2.429   2.050  0.0043  0.3180  0.4006
  112POPC   O1414896   5.707   2.323   1.976  0.7313 -0.0213 -0.1106
  112POPC   O1214897   5.500   2.244   1.867 -0.9415  0.3615  0.1270
  112POPC   O1114898   5.553   2.182   2.105 -0.2984 -0.5484 -0.0766
  112POPC    C114899   5.455   2.189   2.211 -0.1582  0.3749  0.0545
  112POPC    HA14900   5.392   2.097   2.206 -1.3457  1.1704  0.0428
  112POPC    HB14901   5.378   2.268   2.203 -1.0132 -0.5829 -1.8647
  112POPC    C214902   5.517   2.180   2.348  0.0280 -0.1539 -0.0822
  112POPC    HS14903   5.579   2.272   2.357  0.3440 -0.3196 -0.5554
  112POPC   O2114904   5.574   2.051   2.364 -0.2586  0.3293 -0.0258
  112POPC   C2114905   5.700   2.047   2.378 -0.4124  0.2564  0.2748
  112POPC   O2214906   5.781   2.141   2.371 -0.4113 -0.0048 -0.1432
  112POPC   C2214907   5.741   1.902   2.409 -0.1120  0.4985  0.5113
  112POPC   H2R14908   5.844   1.893   2.452  0.4833 -2.1185 -1.2773
  112POPC   H2S14909   5.735   1.848   2.313  2.2266  2.4587 -0.8749
  112POPC    C314910   5.406   2.186   2.461 -0.0667  0.6847  0.8429
  112POPC    HX14911   5.332   2.106   2.439 -1.1013  1.2267  2.2043
  112POPC    HY14912   5.334   2.270   2.453 -2.1004 -1.1137 -1.5958
  112POPC   O3114913   5.452   2.167   2.591 -0.0389  0.1632  0.0416
  112POPC   C3114914   5.494   2.276   2.649  0.0433  0.5267 -0.2881
  112POPC   O3214915   5.501   2.383   2.600  0.2598 -0.3856 -0.2028
  112POPC   C3214916   5.554   2.232   2.782 -0.5957  0.0703  0.1327
  112POPC   H2X14917   5.661   2.259   2.773 -0.9218  0.7143 -3.3224
  112POPC   H2Y14918   5.548   2.122   2.783 -1.6151  0.0832  2.2033
  112POPC   C2314919   5.649   1.831   2.519 -0.2007 -0.2476  0.0519
  112POPC   H3R14920   5.641   1.721   2.505  0.4723 -1.1177  4.7841
  112POPC   H3S14921   5.546   1.871   2.513 -1.0848 -2.4192 -0.0373
  112POPC   C2414922   5.697   1.862   2.659  0.1159 -0.0979 -0.1343
  112POPC   H4R14923   5.738   1.965   2.662 -0.7594  0.2288  1.4101
  112POPC   H4S14924   5.771   1.786   2.692  0.9906  0.2976 -1.1180
  112POPC   C2514925   5.585   1.855   2.768  0.3360 -0.0620 -0.1564
  112POPC   H5R14926   5.553   1.749   2.771 -0.9315  0.2916 -0.4478
  112POPC   H5S14927   5.497   1.919   2.744 -0.4193 -1.2431 -0.6713
  112POPC   C2614928   5.639   1.899   2.906  0.3227 -0.0475 -0.2401
  112POPC   H6R14929   5.692   1.996   2.901 -0.5529  0.4430 -0.2776
  112POPC   H6S14930   5.715   1.826   2.939  1.8677  2.0228  1.0064
  112POPC   C2714931   5.524   1.909   3.006  0.1174 -1.0114  0.3702
  112POPC   H7R14932   5.475   1.810   3.007 -1.1158 -0.4151  0.7639
  112POPC   H7S14933   5.442   1.977   2.975 -0.5443 -1.3130  1.4167
  112POPC   C2814934   5.562   1.906   3.153 -0.3162  0.1903  0.5532
  112POPC   H8R14935   5.637   1.829   3.181 -0.2423  1.1093  3.1035
  112POPC   H8S14936   5.472   1.873   3.208 -0.5382 -3.2173 -1.5313
  112POPC   C2914937   5.617   2.046   3.191  0.0133  0.0639  0.2112
  112POPC   H9114938   5.699   2.077   3.124  1.3538 -1.5004  1.0644
  112POPC  C21014939   5.584   2.123   3.301  0.2027 -0.1810  0.3311
  112POPC  H10114940   5.623   2.226   3.300 -1.6126  0.5480  0.1588
  112POPC  C21114941   5.484   2.096   3.412  0.1833 -0.4422  0.7400
  112POPC  H11R14942   5.389   2.085   3.356 -1.3498  0.0365  3.1199
  112POPC  H11S14943   5.463   2.182   3.479 -0.8620 -1.3509  1.6127
  112POPC  C21214944   5.507   1.957   3.492  0.3080 -0.5468  0.0502
  112POPC  H12R14945   5.501   1.864   3.432 -1.2666 -0.8624  0.6492
  112POPC  H12S14946   5.421   1.948   3.561  1.4223  0.8404  1.7234
  112POPC  C21314947   5.642   1.966   3.562  0.1426  0.1027 -0.1136
  112POPC  H13R14948   5.664   2.069   3.598 -0.3574  0.8844 -1.9122
  112POPC  H13S14949   5.715   1.957   3.479  1.1154  0.5059  0.6830
  112POPC  C21414950   5.662   1.865   3.678  1.0198  0.0125 -0.3089
  112POPC  H14R14951   5.649   1.760   3.645  0.0977  0.3847 -1.1570
  112POPC  H14S14952   5.574   1.892   3.740  0.5448  0.8269 -1.3008
  112POPC  C21514953   5.800   1.868   3.742 -0.1416  0.4369  0.2806
  112POPC  H15R14954   5.814   1.956   3.809  0.9850 -0.4697  1.2809
  112POPC  H15S14955   5.862   1.876   3.649  0.2856 -1.2594  0.3898
  112POPC  C21614956   5.843   1.741   3.816 -0.1544 -0.0790 -0.0609
  112POPC  H16R14957   5.946   1.771   3.845 -0.7219  1.5170  0.4018
  112POPC  H16S14958   5.850   1.648   3.755  0.6236  1.0695 -1.7733
  112POPC  C21714959   5.769   1.724   3.951 -0.6173  0.0414  0.0761
  112POPC  H17R14960   5.661   1.699   3.946 -0.7331 -0.2546  2.8444
  112POPC  H17S14961   5.774   1.821   4.003  1.3637 -0.1406  0.2967
  112POPC  C21814962   5.841   1.623   4.041  0.1175 -0.0798 -0.0946
  112POPC  H18R14963   5.781   1.631   4.134  0.9427  1.0801  0.3582
  112POPC  H18S14964   5.947   1.640   4.072 -0.1744  0.7941  0.4594
  112POPC  H18T14965   5.834   1.519   4.001  0.7995 -0.0718 -0.2544
  112POPC   C3314966   5.477   2.272   2.911 -0.3104  0.4161  0.8859
  112POPC   H3X14967   5.540   2.233   2.994  2.0469  1.6311 -0.2464
  112POPC   H3Y14968   5.378   2.221   2.913 -0.1968  0.2049  1.5038
  112POPC   C3414969   5.458   2.421   2.935 -0.7583  0.0166  0.0242
  112POPC   H4X14970   5.408   2.443   3.032  0.0664 -0.9020  0.6831
  112POPC   H4Y14971   5.388   2.461   2.859 -0.2181 -1.3913 -1.2645
  112POPC   C3514972   5.591   2.498   2.927 -0.6530  0.0169  0.2516
  112POPC   H5X14973   5.633   2.480   2.825  2.9085  2.2735  1.1332
  112POPC   H5Y14974   5.664   2.452   2.997 -2.7148 -1.8739  1.2826
  112POPC   C3614975   5.582   2.651   2.936  0.8665  0.0293  0.0672
  112POPC   H6X14976   5.536   2.660   3.036 -1.2650  1.8095 -0.9902
  112POPC   H6Y14977   5.507   2.682   2.859  2.5805 -0.5768 -1.9397
  112POPC   C3714978   5.711   2.719   2.909 -0.0850 -0.4122  1.1551
  112POPC   H7X14979   5.747   2.698   2.806  0.7671 -0.9135  1.5426
  112POPC   H7Y14980   5.783   2.676   2.982  1.1080  1.4572  1.1404
  112POPC   C3814981   5.705   2.867   2.903  0.5099  0.2165 -0.5252
  112POPC   H8X14982   5.622   2.891   2.832 -0.2504 -2.4226 -0.6568
  112POPC   H8Y14983   5.801   2.904   2.861  0.2819  2.4305  0.7985
  112POPC   C3914984   5.667   2.937   3.032  0.7575  0.0365  0.4349
  112POPC   H9X14985   5.602   2.875   3.098  0.7380 -1.0078 -0.5449
  112POPC   H9Y14986   5.619   3.030   2.994 -0.0760 -0.3364  0.5519
  112POPC  C31014987   5.794   2.967   3.113  0.0754  0.6605 -0.1820
  112POPC  H10X14988   5.865   3.027   3.053  2.5432 -2.5299 -0.7390
  112POPC  H10Y14989   5.848   2.872   3.136  0.5100  1.1851  1.0344
  112POPC  C31114990   5.770   3.036   3.248  0.2298  0.5820 -0.5649
  112POPC  H11X14991   5.861   3.019   3.310  0.7137  0.8766 -1.1788
  112POPC  H11Y14992   5.687   2.982   3.298 -0.4404  0.2166 -2.0023
  112POPC  C31214993   5.720   3.183   3.239 -0.5748  0.5204 -0.0496
  112POPC  H12X14994   5.628   3.190   3.177  0.2476  3.2986 -1.1228
  112POPC  H12Y14995   5.793   3.241   3.177  1.7981 -1.5916  0.5905
  112POPC  C31314996   5.702   3.243   3.368  0.3092 -0.9369 -0.6798
  112POPC  H13X14997   5.692   3.353   3.355  2.7287 -0.7534 -1.5220
  112POPC  H13Y14998   5.793   3.225   3.429  0.6924 -0.7163 -1.1720
  112POPC  C31414999   5.579   3.190   3.439  0.3271 -0.2980 -0.2766
  112POPC  H14X15000   5.592   3.091   3.487 -2.1588 -0.1079  0.9460
  112POPC  H14Y15001   5.510   3.166   3.355  0.9569  1.8815 -1.4701
  112POPC  C31515002   5.526   3.294   3.550 -0.2779  0.5948  1.0908
  112POPC  H15X15003   5.436   3.243   3.590 -0.8319  1.1029  0.5227
  112POPC  H15Y15004   5.490   3.390   3.506  2.0554 -0.4112 -3.6805
  112POPC  C31615005   5.615   3.307   3.671 -0.0617 -0.7733 -0.2618
  112POPC  H16X15006   5.572   3.356   3.760  1.3057  0.4371 -0.2417
  112POPC  H16Y15007   5.699   3.379   3.662 -1.0006  0.9105  3.1402
  112POPC  H16Z15008   5.659   3.207   3.695  3.3463  0.5391 -0.4270
  113POPC     N15009   6.815   1.949   2.081  0.3071 -0.4345  0.5118
  113POPC   C1215010   6.861   1.817   2.140  0.6821 -0.0057  0.4710
  113POPC  H12A15011   6.927   1.834   2.224  1.1507  2.6927 -0.3712
  113POPC  H12B15012   6.921   1.766   2.066  0.8646  0.8959 -0.0122
  113POPC   C1315013   6.925   2.041   2.051  0.1270  0.3918  0.0317
  113POPC  H13A15014   6.886   2.137   2.022 -0.7827  0.6484  1.9541
  113POPC  H13B15015   6.994   2.055   2.133 -1.4209  1.6972  1.1707
  113POPC  H13C15016   6.988   2.005   1.971  0.9765  3.1373 -0.6517
  113POPC   C1415017   6.743   1.926   1.950  0.0561 -0.7789  0.2756
  113POPC  H14A15018   6.655   1.864   1.961  0.0752 -0.5992  1.6900
  113POPC  H14B15019   6.714   2.023   1.913  0.9016  0.5515  2.8512
  113POPC  H14C15020   6.798   1.878   1.871  0.5009  1.3566 -0.7675
  113POPC   C1515021   6.727   2.020   2.180  0.0522  0.9195  0.5443
  113POPC  H15A15022   6.699   2.118   2.143 -0.4997  1.0602  1.3040
  113POPC  H15B15023   6.779   2.037   2.273  1.5308 -0.7303  0.0707
  113POPC  H15C15024   6.631   1.973   2.195  0.4245  0.2345  0.8144
  113POPC   C1115025   6.751   1.716   2.169  0.0547  0.5245 -0.5025
  113POPC  H11A15026   6.671   1.759   2.234  0.9696 -0.8643  1.6470
  113POPC  H11B15027   6.789   1.629   2.226 -1.1814 -0.9168 -1.7642
  113POPC     P15028   6.627   1.529   2.028  0.2240  0.1404 -0.0576
  113POPC   O1315029   6.725   1.442   1.959 -1.0777  0.0597 -0.4166
  113POPC   O1415030   6.497   1.541   1.956  0.0682 -0.2918  0.1548
  113POPC   O1215031   6.688   1.676   2.047  0.2066  0.4074 -0.1112
  113POPC   O1115032   6.594   1.473   2.170  0.1156  0.1439  0.2804
  113POPC    C115033   6.465   1.464   2.233  0.0380  0.4560 -0.2491
  113POPC    HA15034   6.468   1.371   2.294  0.2796  0.1541 -0.7142
  113POPC    HB15035   6.379   1.450   2.164 -1.1922  3.3225  0.5520
  113POPC    C215036   6.438   1.577   2.336 -0.2820  0.1552 -0.2300
  113POPC    HS15037   6.426   1.677   2.288 -1.8459 -0.4842 -1.2321
  113POPC   O2115038   6.543   1.570   2.437 -0.3976 -0.4751  0.0765
  113POPC   C2115039   6.587   1.686   2.476  0.1075  0.6446 -0.5965
  113POPC   O2215040   6.541   1.794   2.448 -0.4511 -1.3100 -0.0768
  113POPC   C2215041   6.721   1.669   2.559 -0.4910 -0.5984  0.0292
  113POPC   H2R15042   6.795   1.629   2.486 -0.7807  0.1097 -0.6707
  113POPC   H2S15043   6.724   1.587   2.634 -0.6783  0.2728  1.0160
  113POPC    C315044   6.294   1.551   2.408 -0.2918  0.4585  0.2860
  113POPC    HX15045   6.306   1.447   2.446  1.3807  0.6942  0.4792
  113POPC    HY15046   6.208   1.556   2.337  1.1151  2.7988 -1.3750
  113POPC   O3115047   6.274   1.638   2.521 -0.1956  0.0288  0.2449
  113POPC   C3115048   6.232   1.759   2.484 -0.4458 -0.3073 -0.6532
  113POPC   O3215049   6.195   1.791   2.376  0.7227  0.2006  0.1062
  113POPC   C3215050   6.186   1.822   2.615  0.1510  0.4691 -0.1435
  113POPC   H2X15051   6.157   1.743   2.688  1.7875 -1.2686 -1.2870
  113POPC   H2Y15052   6.106   1.896   2.597 -0.5111  0.8813  3.5671
  113POPC   C2315053   6.775   1.792   2.631 -0.6670 -0.4696 -0.0561
  113POPC   H3R15054   6.776   1.884   2.570 -0.3740  0.1664  0.8861
  113POPC   H3S15055   6.882   1.772   2.653 -0.7560 -0.8292  0.0630
  113POPC   C2415056   6.711   1.828   2.769  0.3494 -0.6119 -0.5643
  113POPC   H4R15057   6.608   1.863   2.745  0.3432  0.3626  0.7939
  113POPC   H4S15058   6.774   1.912   2.807  1.7113 -2.1878  0.7811
  113POPC   C2515059   6.712   1.728   2.878 -0.2901  0.0372 -0.1233
  113POPC   H5R15060   6.639   1.645   2.866  0.4470 -0.4953 -1.0252
  113POPC   H5S15061   6.685   1.789   2.967 -0.6099  0.9320 -0.8202
  113POPC   C2615062   6.849   1.673   2.898 -0.6407  0.0650  0.4549
  113POPC   H6R15063   6.921   1.758   2.903  0.4913 -0.8071 -0.5363
  113POPC   H6S15064   6.884   1.619   2.808  0.4178  2.0373 -0.3910
  113POPC   C2715065   6.849   1.582   3.025  0.1836 -0.2603  0.2302
  113POPC   H7R15066   6.792   1.490   2.999 -1.0401  0.7530 -0.8235
  113POPC   H7S15067   6.804   1.640   3.108 -0.1029 -1.1374  0.6972
  113POPC   C2815068   6.996   1.542   3.067  0.4849  0.5128 -0.0906
  113POPC   H8R15069   7.039   1.639   3.099 -1.6429  1.7245 -0.7246
  113POPC   H8S15070   7.045   1.507   2.973 -0.1161 -2.6287  0.6314
  113POPC   C2915071   6.987   1.432   3.177 -0.5560 -0.2391  0.0817
  113POPC   H9115072   7.000   1.326   3.147  2.1056  0.6953 -2.6249
  113POPC  C21015073   6.971   1.459   3.305 -0.3233  0.3375 -0.0456
  113POPC  H10115074   6.958   1.382   3.382  2.3520 -0.4028 -0.2517
  113POPC  C21115075   6.958   1.597   3.359  0.1439 -0.6240  0.1301
  113POPC  H11R15076   6.853   1.633   3.359  1.0571  2.2658  1.2466
  113POPC  H11S15077   7.010   1.674   3.299 -2.7742  1.4553  0.0413
  113POPC  C21215078   7.014   1.627   3.504  0.5599  0.0720 -0.0659
  113POPC  H12R15079   7.113   1.585   3.530 -0.2933 -0.5057  2.5907
  113POPC  H12S15080   6.947   1.570   3.573  2.1081 -1.0369  0.5694
  113POPC  C21315081   7.021   1.775   3.529 -0.4502  0.4244 -0.7220
  113POPC  H13R15082   7.087   1.826   3.456  0.5012  0.2514 -0.0166
  113POPC  H13S15083   7.057   1.793   3.633  0.4098 -0.3976 -0.8507
  113POPC  C21415084   6.887   1.849   3.523  0.1786 -0.0473  0.6156
  113POPC  H14R15085   6.838   1.835   3.425 -0.3315  0.5041  0.7929
  113POPC  H14S15086   6.915   1.956   3.530 -0.2511  0.2415 -1.4917
  113POPC  C21515087   6.785   1.804   3.623  0.8526  0.1277  0.4249
  113POPC  H15R15088   6.751   1.702   3.597  4.1307 -0.9924  0.0022
  113POPC  H15S15089   6.705   1.881   3.619  0.5599 -0.2342 -1.3921
  113POPC  C21615090   6.826   1.794   3.772  0.5277  0.4183  0.2691
  113POPC  H16R15091   6.882   1.887   3.797 -0.0835  0.5486  1.2347
  113POPC  H16S15092   6.891   1.707   3.795  1.9534  1.2820 -0.4298
  113POPC  C21715093   6.704   1.783   3.869 -0.5443 -0.1132 -0.1730
  113POPC  H17R15094   6.660   1.690   3.828 -0.6237 -0.2621  0.2438
  113POPC  H17S15095   6.617   1.848   3.850 -1.0739 -0.6393  0.4002
  113POPC  C21815096   6.743   1.767   4.015  0.8922  0.2537 -0.4997
  113POPC  H18R15097   6.798   1.671   4.025  1.5610  0.7842  1.3679
  113POPC  H18S15098   6.648   1.774   4.071  1.1090 -0.2736 -0.0537
  113POPC  H18T15099   6.796   1.857   4.052 -0.1222  0.0351  1.6382
  113POPC   C3315100   6.301   1.910   2.681 -0.4500 -0.3055 -0.2068
  113POPC   H3X15101   6.329   1.995   2.616  4.3048 -1.1494  0.3689
  113POPC   H3Y15102   6.393   1.849   2.688  2.0691  3.1074 -1.1508
  113POPC   C3415103   6.259   1.956   2.827  0.8401  0.4440 -0.3421
  113POPC   H4X15104   6.151   1.980   2.823  1.0728  1.7902  0.5687
  113POPC   H4Y15105   6.310   2.053   2.850 -0.4847  1.3560 -1.1122
  113POPC   C3515106   6.290   1.854   2.931 -0.3345  0.3356 -0.0811
  113POPC   H5X15107   6.386   1.884   2.978  0.4193 -1.4976 -0.3668
  113POPC   H5Y15108   6.295   1.749   2.896 -1.7435  0.1425  0.2382
  113POPC   C3615109   6.195   1.865   3.054 -0.9326 -0.1832 -0.2457
  113POPC   H6X15110   6.231   1.787   3.125  2.8578  0.0767 -1.6409
  113POPC   H6Y15111   6.091   1.843   3.023 -0.8224  1.2493 -1.7604
  113POPC   C3715112   6.184   2.004   3.119 -0.6824  0.0120  0.3535
  113POPC   H7X15113   6.150   2.076   3.041  2.7388  0.4099 -0.9752
  113POPC   H7Y15114   6.283   2.041   3.153 -0.7140  2.3010 -1.7637
  113POPC   C3815115   6.078   2.026   3.232  0.2135  0.9415 -0.2264
  113POPC   H8X15116   6.095   1.958   3.318  2.1663 -1.3035 -2.2596
  113POPC   H8Y15117   5.977   2.008   3.190 -0.0979  0.5476  0.6795
  113POPC   C3915118   6.080   2.176   3.281  0.4583  0.0239  0.0773
  113POPC   H9X15119   6.066   2.236   3.189 -1.3969  0.5938  0.6789
  113POPC   H9Y15120   6.177   2.198   3.329 -0.7218  0.2521  2.5120
  113POPC  C31015121   5.972   2.194   3.394 -0.3260  0.4704  0.4608
  113POPC  H10X15122   5.987   2.118   3.474 -0.5616  0.2048  0.2502
  113POPC  H10Y15123   5.872   2.185   3.346 -0.7352  1.1994  1.1503
  113POPC  C31115124   5.970   2.336   3.461 -0.4960 -0.0199  0.7465
  113POPC  H11X15125   5.942   2.412   3.385  0.5404  1.1949  1.5371
  113POPC  H11Y15126   6.078   2.355   3.475  0.2176 -1.9306 -1.4667
  113POPC  C31215127   5.885   2.357   3.587  0.3278  0.2539 -0.9201
  113POPC  H12X15128   5.779   2.336   3.561  0.3832 -0.4735 -0.5939
  113POPC  H12Y15129   5.898   2.462   3.621 -1.4243 -0.0507  0.9250
  113POPC  C31315130   5.920   2.282   3.724  0.1849  0.5733  0.9111
  113POPC  H13X15131   5.896   2.174   3.715  1.9814  0.1593  0.7242
  113POPC  H13Y15132   5.855   2.316   3.808 -1.3752 -1.0998  0.4614
  113POPC  C31415133   6.063   2.298   3.771 -0.1583  0.0679 -0.0172
  113POPC  H14X15134   6.080   2.403   3.805  0.6662  0.4166 -1.4548
  113POPC  H14Y15135   6.133   2.283   3.687 -1.0907 -1.3244 -0.5766
  113POPC  C31515136   6.108   2.199   3.880  0.0842 -0.0823  0.0712
  113POPC  H15X15137   6.197   2.240   3.933 -1.0329  2.5108  0.0981
  113POPC  H15Y15138   6.138   2.100   3.840 -1.0316  0.0045 -1.0123
  113POPC  C31615139   6.008   2.172   3.988  0.4113  0.2698  0.1631
  113POPC  H16X15140   5.923   2.111   3.951  0.7105 -0.2509  0.3218
  113POPC  H16Y15141   5.974   2.268   4.032 -0.8432 -0.0480 -0.0882
  113POPC  H16Z15142   6.060   2.115   4.069  1.0095  0.8600  0.1983
  114POPC     N15143   2.142   3.151   2.026 -0.7917 -0.4069  0.0699
  114POPC   C1215144   2.200   3.262   2.121 -0.0716 -0.0092  0.4772
  114POPC  H12A15145   2.284   3.317   2.081 -1.1526  1.1809 -0.2379
  114POPC  H12B15146   2.234   3.212   2.210 -1.3135 -1.6100  0.1089
  114POPC   C1315147   2.110   3.206   1.899  0.3029  0.2213 -0.1257
  114POPC  H13A15148   2.197   3.229   1.840  0.3771 -1.7327 -0.8308
  114POPC  H13B15149   2.052   3.130   1.849  0.8377  0.7897 -1.6611
  114POPC  H13C15150   2.045   3.292   1.908 -1.6877 -1.3969  2.7197
  114POPC   C1415151   2.248   3.044   2.004 -0.3004 -0.0246  0.0156
  114POPC  H14A15152   2.279   3.015   2.104  1.9723 -0.3851 -0.7259
  114POPC  H14B15153   2.212   2.953   1.958 -1.5926  0.3164  0.3130
  114POPC  H14C15154   2.329   3.088   1.948 -0.8580 -0.0504 -0.8314
  114POPC   C1515155   2.023   3.088   2.085 -0.2335  0.6169  0.2271
  114POPC  H15A15156   1.934   3.150   2.083  0.6588  1.9473 -1.4883
  114POPC  H15B15157   2.044   3.053   2.185  1.8901 -1.8386 -0.9788
  114POPC  H15C15158   1.995   3.001   2.028 -1.6314  1.4724 -0.4727
  114POPC   C1115159   2.100   3.375   2.155 -0.7668  0.3460 -0.2907
  114POPC  H11A15160   2.019   3.343   2.224 -0.1473 -0.7140 -0.0338
  114POPC  H11B15161   2.048   3.402   2.060 -0.8054 -0.5966 -0.5431
  114POPC     P15162   2.189   3.496   2.361  0.0020 -0.2185  0.2304
  114POPC   O1315163   2.059   3.467   2.421 -0.2770 -0.3722 -0.4477
  114POPC   O1415164   2.251   3.630   2.393  0.4820  0.1152 -0.4337
  114POPC   O1215165   2.175   3.484   2.202  0.0753  0.2402 -0.1028
  114POPC   O1115166   2.293   3.378   2.391  0.3235  0.0190 -0.5110
  114POPC    C115167   2.262   3.262   2.464  1.0697  0.4992 -0.4911
  114POPC    HA15168   2.347   3.194   2.444 -1.2167 -3.8140  2.7575
  114POPC    HB15169   2.173   3.210   2.421  1.3967 -0.6751  0.1904
  114POPC    C215170   2.250   3.276   2.614  0.1602 -0.4141  0.1236
  114POPC    HS15171   2.158   3.335   2.637 -0.3129 -0.7909 -0.7732
  114POPC   O2115172   2.372   3.337   2.665  0.4880  0.1756  0.3137
  114POPC   C2115173   2.364   3.440   2.746  1.0441  0.0814  0.8651
  114POPC   O2215174   2.261   3.489   2.785  0.2752  0.1501 -0.3453
  114POPC   C2215175   2.501   3.496   2.783 -0.2739 -1.0802 -0.1108
  114POPC   H2R15176   2.579   3.453   2.717 -0.2827 -0.4396 -0.5496
  114POPC   H2S15177   2.510   3.458   2.887 -0.6191 -0.4524  0.1551
  114POPC    C315178   2.224   3.134   2.677 -0.5300  0.0647 -0.2377
  114POPC    HX15179   2.310   3.064   2.666  1.2108  1.9486  0.6703
  114POPC    HY15180   2.155   3.080   2.609 -0.3032  0.7274 -1.0111
  114POPC   O3115181   2.183   3.142   2.814 -0.0683 -0.1751 -0.6392
  114POPC   C3115182   2.062   3.193   2.831  0.4139 -0.3709  0.2573
  114POPC   O3215183   1.986   3.219   2.739  0.6097 -0.1466  0.2088
  114POPC   C3215184   2.024   3.219   2.976 -0.2142  0.2053 -0.5860
  114POPC   H2X15185   2.119   3.247   3.025 -1.4345  1.7456  1.0071
  114POPC   H2Y15186   1.980   3.127   3.020  1.3363 -0.3857 -0.2293
  114POPC   C2315187   2.501   3.655   2.788 -0.3794 -0.3892 -0.1853
  114POPC   H3R15188   2.469   3.687   2.686 -0.5714 -1.7972 -0.5791
  114POPC   H3S15189   2.611   3.673   2.789 -0.6999  1.9404  0.1833
  114POPC   C2415190   2.435   3.728   2.909  0.0596  0.6260 -0.1512
  114POPC   H4R15191   2.465   3.686   3.007  0.3849 -0.4439 -0.6903
  114POPC   H4S15192   2.327   3.703   2.910  0.7365 -2.8108 -0.3966
  114POPC   C2515193   2.476   3.875   2.916  0.1298  0.2911 -0.2769
  114POPC   H5R15194   2.410   3.934   2.849  1.1912 -1.3228 -2.8710
  114POPC   H5S15195   2.579   3.894   2.881  0.2479  1.3400  0.5744
  114POPC   C2615196   2.468   3.928   3.059 -0.3419 -0.1431  0.2096
  114POPC   H6R15197   2.543   3.870   3.117  0.7164  0.5725 -0.3885
  114POPC   H6S15198   2.372   3.911   3.111 -0.2329 -2.1010 -0.1521
  114POPC   C2715199   2.489   4.077   3.061  0.0661 -0.2537  0.0577
  114POPC   H7R15200   2.411   4.119   2.994  1.6015  0.7412 -1.1529
  114POPC   H7S15201   2.592   4.101   3.028  0.9893 -3.4719  0.2604
  114POPC   C2815202   2.460   4.123   3.208  0.2396  0.6933 -0.1581
  114POPC   H8R15203   2.542   4.079   3.268 -1.5697  0.5276  2.3280
  114POPC   H8S15204   2.361   4.092   3.247 -0.9335  1.4736 -2.3310
  114POPC   C2915205   2.476   4.275   3.222 -0.3486 -0.4381 -0.2364
  114POPC   H9115206   2.430   4.335   3.142 -1.1199 -0.9384 -0.1781
  114POPC  C21015207   2.547   4.333   3.316 -0.4189 -0.0164  0.5934
  114POPC  H10115208   2.565   4.440   3.301  3.0127 -0.5606  0.1215
  114POPC  C21115209   2.613   4.265   3.435 -0.2595 -0.2757  0.3341
  114POPC  H11R15210   2.593   4.157   3.449  0.9035 -0.9734 -2.6118
  114POPC  H11S15211   2.563   4.314   3.521 -1.5212  1.0433 -1.1029
  114POPC  C21215212   2.767   4.279   3.437  0.5633  0.2812  0.0551
  114POPC  H12R15213   2.792   4.240   3.538 -0.4089  1.0823  0.6233
  114POPC  H12S15214   2.812   4.381   3.443  0.3542  0.3080  2.0627
  114POPC  C21315215   2.839   4.187   3.342  0.0630  0.0548  0.2948
  114POPC  H13R15216   2.842   4.221   3.236  1.8249  0.0865  0.3220
  114POPC  H13S15217   2.789   4.088   3.341 -0.7359  0.4504 -0.0178
  114POPC  C21415218   2.983   4.150   3.390 -0.3049  0.2138  0.7424
  114POPC  H14R15219   3.036   4.248   3.397 -3.2848  1.9133  1.2656
  114POPC  H14S15220   3.035   4.098   3.307 -2.3753 -0.8572  0.0715
  114POPC  C21515221   2.983   4.057   3.516  1.4698  0.4489  0.2517
  114POPC  H15R15222   2.916   3.973   3.490 -1.1218  2.6967 -0.8208
  114POPC  H15S15223   2.934   4.111   3.599 -0.6130  0.8367 -1.1448
  114POPC  C21615224   3.120   4.005   3.564 -0.9250  0.2161 -0.2185
  114POPC  H16R15225   3.153   3.922   3.498 -1.2827  0.3411 -0.5516
  114POPC  H16S15226   3.112   3.962   3.666 -1.3465  0.6953 -0.0419
  114POPC  C21715227   3.238   4.108   3.566 -0.7482  0.2333 -0.2266
  114POPC  H17R15228   3.260   4.139   3.462 -0.4573  2.6336  0.4975
  114POPC  H17S15229   3.330   4.053   3.597 -1.4781 -1.0812 -0.2897
  114POPC  C21815230   3.206   4.227   3.649  0.6651  0.1656 -0.5806
  114POPC  H18R15231   3.203   4.199   3.757 -3.3116 -2.1990 -1.0668
  114POPC  H18S15232   3.107   4.270   3.623  0.9793  1.7492  0.7182
  114POPC  H18T15233   3.277   4.311   3.637 -0.8527  1.4801 -0.8011
  114POPC   C3315234   1.935   3.347   2.975 -0.1239  0.0880 -0.3457
  114POPC   H3X15235   1.842   3.309   2.927  0.5144 -0.9054 -0.8235
  114POPC   H3Y15236   1.983   3.429   2.918 -0.8236  1.9150  1.5630
  114POPC   C3415237   1.903   3.400   3.109 -0.2286  0.1142 -0.1333
  114POPC   H4X15238   1.998   3.444   3.147  0.2605 -1.3667  0.4125
  114POPC   H4Y15239   1.884   3.324   3.187  0.5842  2.4878  2.5405
  114POPC   C3515240   1.781   3.494   3.120 -0.1205  0.4942  0.1877
  114POPC   H5X15241   1.690   3.452   3.072 -0.4519  0.9235  0.4322
  114POPC   H5Y15242   1.797   3.594   3.074 -1.5658  0.9482  0.6071
  114POPC   C3615243   1.761   3.520   3.266  0.8168 -0.2282 -1.0637
  114POPC   H6X15244   1.849   3.561   3.320 -0.1312  0.8239 -0.2513
  114POPC   H6Y15245   1.761   3.423   3.320  1.4820 -0.2160 -1.0349
  114POPC   C3715246   1.634   3.591   3.295  0.2072 -0.4438  0.3048
  114POPC   H7X15247   1.553   3.545   3.234 -0.2888 -0.0221  0.6283
  114POPC   H7Y15248   1.638   3.695   3.256  0.9187  0.7332  3.2001
  114POPC   C3815249   1.585   3.593   3.442  0.0215 -0.3778  0.4594
  114POPC   H8X15250   1.675   3.633   3.494 -0.6387  2.2002 -0.2548
  114POPC   H8Y15251   1.565   3.486   3.467  1.6210 -1.5550 -2.7558
  114POPC   C3915252   1.454   3.677   3.465 -0.0275  0.4768 -0.0349
  114POPC   H9X15253   1.364   3.652   3.404 -1.2674 -0.6877  2.1260
  114POPC   H9Y15254   1.476   3.784   3.444  1.4520 -0.2061 -2.3215
  114POPC  C31015255   1.394   3.670   3.610 -0.6696 -0.7804  0.0899
  114POPC  H10X15256   1.470   3.709   3.681 -1.0974 -1.3176  0.8591
  114POPC  H10Y15257   1.372   3.562   3.624  0.0038 -1.0801 -1.0986
  114POPC  C31115258   1.265   3.756   3.609  0.4256 -0.1582 -0.4164
  114POPC  H11X15259   1.200   3.724   3.525 -1.8266  1.6701  0.5203
  114POPC  H11Y15260   1.305   3.860   3.605  0.0299  0.1242  2.0081
  114POPC  C31215261   1.185   3.748   3.743 -0.0906 -0.3102  0.2478
  114POPC  H12X15262   1.255   3.790   3.818  1.8200 -0.2644 -1.4922
  114POPC  H12Y15263   1.178   3.639   3.767 -0.0576 -0.0675  1.4134
  114POPC  C31315264   1.052   3.825   3.725 -0.1198 -0.4147 -0.0008
  114POPC  H13X15265   0.994   3.774   3.645 -1.4382  1.6739 -0.4627
  114POPC  H13Y15266   1.073   3.930   3.693  1.5703  0.1401  2.6480
  114POPC  C31415267   0.966   3.846   3.852  0.1024  0.8279 -0.4659
  114POPC  H14X15268   1.044   3.864   3.929 -1.3869 -0.0475  1.3190
  114POPC  H14Y15269   0.928   3.746   3.882 -0.0813  1.2460  0.7208
  114POPC  C31515270   0.851   3.948   3.856 -0.6548  0.5101  0.3433
  114POPC  H15X15271   0.800   3.928   3.759 -2.1931  0.5648  1.1072
  114POPC  H15Y15272   0.888   4.053   3.857 -2.7221  1.3030  2.1954
  114POPC  C31615273   0.750   3.926   3.969  0.0763 -0.0057 -0.5141
  114POPC  H16X15274   0.741   3.817   3.989  0.1054  0.2250  0.8346
  114POPC  H16Y15275   0.650   3.968   3.943  0.1229  0.2521 -0.2785
  114POPC  H16Z15276   0.786   3.964   4.066 -2.3196 -0.7124  0.7388
  115POPC     N15277   2.795   2.704   1.887  0.4244  0.1252  0.1348
  115POPC   C1215278   2.892   2.585   1.885  0.7258 -0.0310 -0.6020
  115POPC  H12A15279   2.973   2.613   1.951  0.8533  2.1041 -1.5788
  115POPC  H12B15280   2.933   2.588   1.785 -3.0662  4.4239 -2.4151
  115POPC   C1315281   2.711   2.699   1.768  0.5178 -0.2013  0.4618
  115POPC  H13A15282   2.783   2.695   1.688  0.1851  0.2231  0.1364
  115POPC  H13B15283   2.661   2.604   1.772 -3.5860  1.7308  0.2772
  115POPC  H13C15284   2.640   2.778   1.748 -0.8486 -1.2988  0.7881
  115POPC   C1415285   2.720   2.697   2.015 -0.4839  0.2609  0.7334
  115POPC  H14A15286   2.781   2.731   2.097  2.2363 -1.1708 -0.5535
  115POPC  H14B15287   2.618   2.730   2.006 -0.5234 -0.3511 -2.7445
  115POPC  H14C15288   2.707   2.591   2.030  0.3907  0.1291  0.6436
  115POPC   C1515289   2.874   2.832   1.874 -0.7152 -1.0083  0.2778
  115POPC  H15A15290   2.815   2.922   1.883  2.5437  1.4730 -0.8671
  115POPC  H15B15291   2.921   2.845   1.778 -0.0096 -1.3115  0.5772
  115POPC  H15C15292   2.954   2.835   1.947  1.1344  0.7988 -1.6758
  115POPC   C1115293   2.826   2.447   1.914  0.1919 -0.0263  0.3955
  115POPC  H11A15294   2.775   2.448   2.012 -0.2139 -0.7894  0.1993
  115POPC  H11B15295   2.907   2.371   1.911 -0.0580 -0.2782 -0.1465
  115POPC     P15296   2.612   2.308   1.835 -0.3877  0.5787  0.3051
  115POPC   O1315297   2.667   2.173   1.814 -0.1252 -0.1230 -0.0099
  115POPC   O1415298   2.506   2.353   1.742  0.2299 -0.4466  0.1889
  115POPC   O1215299   2.730   2.415   1.814 -0.1705 -0.1921 -0.5513
  115POPC   O1115300   2.568   2.334   1.981 -0.8106  0.0757 -0.3687
  115POPC    C115301   2.479   2.439   2.017  0.0895 -0.8471 -0.1907
  115POPC    HA15302   2.377   2.416   1.980 -0.2480 -0.7205  0.6324
  115POPC    HB15303   2.506   2.532   1.963 -1.7499 -0.9401 -1.3764
  115POPC    C215304   2.469   2.469   2.171 -0.4872  0.0671 -0.0232
  115POPC    HS15305   2.409   2.560   2.193 -0.2113 -0.2136  2.1612
  115POPC   O2115306   2.609   2.482   2.229 -0.3263 -0.9494 -0.0666
  115POPC   C2115307   2.610   2.571   2.327 -0.4907  0.3444 -0.3128
  115POPC   O2215308   2.509   2.629   2.365 -0.1948  0.5198 -0.6452
  115POPC   C2215309   2.748   2.570   2.388  0.9104 -0.0482  0.0847
  115POPC   H2R15310   2.813   2.611   2.309  1.5254 -1.3407 -0.1104
  115POPC   H2S15311   2.773   2.467   2.421 -0.3214  0.2044  1.9986
  115POPC    C315312   2.397   2.348   2.232  0.3903 -0.7226  0.2682
  115POPC    HX15313   2.451   2.251   2.222 -0.2060 -1.1731  1.2721
  115POPC    HY15314   2.306   2.343   2.168 -0.5658  0.3273  1.4887
  115POPC   O3115315   2.361   2.370   2.368 -0.5524 -0.3662 -0.0686
  115POPC   C3115316   2.265   2.462   2.386  0.0897  0.5121 -0.5541
  115POPC   O3215317   2.181   2.505   2.310  0.0009 -0.0706 -0.6985
  115POPC   C3215318   2.268   2.499   2.535 -0.0523  0.0911 -0.4781
  115POPC   H2X15319   2.374   2.528   2.556  0.7228 -1.6285 -1.7372
  115POPC   H2Y15320   2.239   2.409   2.592 -1.6302  0.4369 -0.6931
  115POPC   C2315321   2.763   2.650   2.520 -0.4883 -0.2519 -0.0629
  115POPC   H3R15322   2.718   2.751   2.516  1.8387  0.8991  0.6569
  115POPC   H3S15323   2.871   2.672   2.537 -0.7047  0.9139 -0.1129
  115POPC   C2415324   2.706   2.566   2.633  0.0756 -0.1194 -0.1087
  115POPC   H4R15325   2.767   2.474   2.645 -0.1818 -0.1720  0.8678
  115POPC   H4S15326   2.598   2.543   2.621  0.3606 -1.2363 -0.6669
  115POPC   C2515327   2.715   2.622   2.777 -0.2223 -0.0542  0.3304
  115POPC   H5R15328   2.679   2.726   2.787  0.4911  0.1732  0.5351
  115POPC   H5S15329   2.819   2.631   2.814 -0.7613  2.1519  1.4357
  115POPC   C2615330   2.609   2.551   2.865  0.0941  0.7454  0.6356
  115POPC   H6R15331   2.626   2.442   2.875  0.4370  0.8712  1.4822
  115POPC   H6S15332   2.502   2.568   2.837  0.2342  0.8279  0.1242
  115POPC   C2715333   2.618   2.599   3.008 -0.1330 -0.4450  0.2525
  115POPC   H7R15334   2.630   2.709   2.999 -0.6826 -0.5468 -2.8165
  115POPC   H7S15335   2.713   2.564   3.053  0.2939 -0.4119 -0.5964
  115POPC   C2815336   2.504   2.556   3.102  0.5362  0.7081  0.3343
  115POPC   H8R15337   2.546   2.561   3.205  1.1932 -0.5510  0.1359
  115POPC   H8S15338   2.494   2.448   3.080  1.5641  0.8115 -0.8196
  115POPC   C2915339   2.372   2.616   3.093  0.0847 -0.3659 -0.0252
  115POPC   H9115340   2.365   2.710   3.036  1.3251  0.6341  1.4160
  115POPC  C21015341   2.265   2.580   3.161 -1.0407  0.3622  0.1093
  115POPC  H10115342   2.176   2.643   3.145 -0.1779  1.5365 -0.2074
  115POPC  C21115343   2.241   2.461   3.262 -0.6416  0.1181  0.3168
  115POPC  H11R15344   2.328   2.392   3.267 -3.6316 -4.1324 -0.5852
  115POPC  H11S15345   2.158   2.391   3.239  2.2728 -3.6632  0.3538
  115POPC  C21215346   2.203   2.525   3.400  0.0645  1.2514  0.7067
  115POPC  H12R15347   2.099   2.564   3.400 -0.4729 -0.1581  1.5791
  115POPC  H12S15348   2.273   2.607   3.428  0.4315  0.9969  0.5408
  115POPC  C21315349   2.228   2.421   3.509  0.2747  0.1173 -0.1693
  115POPC  H13R15350   2.309   2.351   3.478 -1.0113 -1.5872  0.1734
  115POPC  H13S15351   2.141   2.352   3.506 -0.7467  1.2140  2.2451
  115POPC  C21415352   2.255   2.482   3.643  0.3511 -0.3350 -0.5268
  115POPC  H14R15353   2.312   2.576   3.627 -0.6880  0.0697 -1.9935
  115POPC  H14S15354   2.319   2.413   3.702 -0.1355 -0.0179  0.3885
  115POPC  C21515355   2.122   2.496   3.720  0.7649 -0.0613 -0.0619
  115POPC  H15R15356   2.060   2.552   3.647 -0.3199 -1.9077 -0.6173
  115POPC  H15S15357   2.153   2.562   3.803  0.4436  0.0030  0.0071
  115POPC  C21615358   2.062   2.356   3.758 -0.4465  0.2249 -0.0224
  115POPC  H16R15359   2.130   2.269   3.750 -1.4514 -0.4946 -1.0063
  115POPC  H16S15360   1.976   2.339   3.690  0.8766  0.0782 -1.7019
  115POPC  C21715361   2.001   2.349   3.902  0.3263 -0.1981  0.0947
  115POPC  H17R15362   1.957   2.446   3.933 -0.5827 -0.9480  1.2618
  115POPC  H17S15363   2.076   2.309   3.974  2.3340 -1.0393 -2.3042
  115POPC  C21815364   1.888   2.241   3.912 -0.0580 -0.2637 -0.1346
  115POPC  H18R15365   1.798   2.271   3.854 -0.5487 -3.5494 -1.2952
  115POPC  H18S15366   1.852   2.221   4.015  0.8523  0.8390  0.4165
  115POPC  H18T15367   1.921   2.147   3.862 -1.0744 -1.6422  1.6364
  115POPC   C3315368   2.164   2.608   2.562  0.4592  0.0607 -0.0410
  115POPC   H3X15369   2.057   2.579   2.554  0.4081  0.3510 -0.4472
  115POPC   H3Y15370   2.169   2.692   2.490 -0.5760  1.4280  1.4312
  115POPC   C3415371   2.177   2.670   2.701  0.2290  0.0245 -0.6118
  115POPC   H4X15372   2.273   2.727   2.702 -0.2253  1.0716 -3.7334
  115POPC   H4Y15373   2.171   2.592   2.780 -2.2055 -0.0264 -0.7778
  115POPC   C3515374   2.058   2.757   2.753  0.4946  0.3004  0.4925
  115POPC   H5X15375   1.959   2.709   2.736  0.6005  0.1996  0.1519
  115POPC   H5Y15376   2.052   2.854   2.698 -0.5428  0.6772  1.2388
  115POPC   C3615377   2.046   2.790   2.910  0.4463  0.6730  0.2314
  115POPC   H6X15378   2.131   2.856   2.937 -0.9312  2.3103  0.6835
  115POPC   H6Y15379   2.049   2.695   2.968 -0.5735  0.3476 -0.2262
  115POPC   C3715380   1.901   2.859   2.945 -0.8496  0.4621 -0.1789
  115POPC   H7X15381   1.885   2.953   2.887 -2.1866 -1.4251 -3.0835
  115POPC   H7Y15382   1.907   2.866   3.056 -1.4632 -0.2670 -0.0992
  115POPC   C3815383   1.785   2.765   2.929 -0.1904  0.6926 -0.5092
  115POPC   H8X15384   1.779   2.729   2.824 -2.0342  0.2597 -0.2979
  115POPC   H8Y15385   1.687   2.818   2.935 -0.2264  0.5062  0.8555
  115POPC   C3915386   1.787   2.631   3.010  0.1899  0.5520  0.2714
  115POPC   H9X15387   1.886   2.583   2.993  0.7453  0.7299  2.7361
  115POPC   H9Y15388   1.714   2.558   2.968  2.0986 -0.7364 -0.9805
  115POPC  C31015389   1.757   2.641   3.165 -0.3995 -0.1013 -0.2568
  115POPC  H10X15390   1.646   2.647   3.160 -0.6033 -2.7485 -0.4766
  115POPC  H10Y15391   1.800   2.742   3.184 -0.4387  0.2970 -2.0805
  115POPC  C31115392   1.817   2.525   3.245 -0.4143 -0.0253  0.1560
  115POPC  H11X15393   1.927   2.525   3.229 -0.6482  1.0619 -1.8865
  115POPC  H11Y15394   1.772   2.431   3.208  2.1035 -0.7626 -1.3235
  115POPC  C31215395   1.800   2.548   3.391  0.2809 -0.0584  0.4430
  115POPC  H12X15396   1.829   2.650   3.423 -0.2030  0.5121 -0.8672
  115POPC  H12Y15397   1.860   2.465   3.434 -3.0814 -2.6545  0.5988
  115POPC  C31315398   1.656   2.513   3.439 -0.0522  0.0352 -0.3363
  115POPC  H13X15399   1.627   2.415   3.395  3.2652 -0.7004 -1.1637
  115POPC  H13Y15400   1.580   2.582   3.396 -0.9627 -1.2447 -0.8525
  115POPC  C31415401   1.637   2.514   3.595 -0.0365 -0.1597  0.6182
  115POPC  H14X15402   1.685   2.600   3.647  4.7589 -0.6577 -2.4180
  115POPC  H14Y15403   1.687   2.419   3.623 -0.5338 -0.2685  1.1718
  115POPC  C31515404   1.491   2.498   3.639  0.4992 -0.0015  0.2052
  115POPC  H15X15405   1.454   2.416   3.574 -1.3516  0.8832  0.1070
  115POPC  H15Y15406   1.433   2.587   3.609 -1.4279 -1.3491 -0.2760
  115POPC  C31615407   1.474   2.472   3.785 -0.2442 -0.1432 -0.3638
  115POPC  H16X15408   1.531   2.382   3.817 -0.9705 -1.1489 -1.7726
  115POPC  H16Y15409   1.366   2.456   3.807  0.0691 -0.0318  1.4167
  115POPC  H16Z15410   1.508   2.556   3.848 -1.5301  0.2951 -0.2271
  116POPC     N15411   6.077   0.827   2.209 -0.2940 -0.1187  0.1412
  116POPC   C1215412   6.127   0.780   2.347 -0.4135 -0.3354  0.1633
  116POPC  H12A15413   6.036   0.748   2.396 -0.5469  1.2629  1.0388
  116POPC  H12B15414   6.159   0.867   2.403 -0.5977 -1.1390  1.5594
  116POPC   C1315415   5.969   0.930   2.231 -0.1622  0.6766  0.3194
  116POPC  H13A15416   6.012   1.014   2.283  2.0607 -0.9491  1.2806
  116POPC  H13B15417   5.929   0.968   2.138 -0.5802 -1.7777 -0.5749
  116POPC  H13C15418   5.888   0.895   2.294 -1.5190  2.2640 -0.4458
  116POPC   C1415419   6.188   0.881   2.130 -0.2791 -0.1905  0.0003
  116POPC  H14A15420   6.251   0.800   2.094 -0.1489 -0.8729  1.6493
  116POPC  H14B15421   6.136   0.929   2.049  0.7383  1.8799  0.4960
  116POPC  H14C15422   6.261   0.946   2.177  2.1939 -1.2648 -2.1149
  116POPC   C1515423   6.009   0.720   2.128 -0.6552 -0.4442 -0.3554
  116POPC  H15A15424   5.981   0.753   2.029 -0.4549  2.6909  0.5316
  116POPC  H15B15425   5.916   0.685   2.169 -2.1012  0.6572 -2.4992
  116POPC  H15C15426   6.080   0.640   2.113  1.6787  1.7479 -1.7900
  116POPC   C1115427   6.247   0.668   2.354 -0.4161 -0.2948 -0.2332
  116POPC  H11A15428   6.285   0.672   2.458  0.3285  2.2442 -0.5118
  116POPC  H11B15429   6.334   0.689   2.289 -0.5900  0.8249 -0.1317
  116POPC     P15430   6.093   0.453   2.406 -0.2293 -0.1265  0.2109
  116POPC   O1315431   6.159   0.322   2.437  0.4219 -0.3143  0.7233
  116POPC   O1415432   5.964   0.452   2.336 -0.0833 -0.3516 -0.1910
  116POPC   O1215433   6.192   0.546   2.315  0.4231  0.4940 -0.5960
  116POPC   O1115434   6.086   0.525   2.542  0.5676  0.2423 -0.0868
  116POPC    C115435   5.993   0.477   2.637 -0.6943 -0.0560 -0.6905
  116POPC    HA15436   5.916   0.411   2.592 -0.4341 -0.5296 -0.4464
  116POPC    HB15437   5.933   0.564   2.671  0.6336  0.7544 -0.3406
  116POPC    C215438   6.060   0.412   2.758 -0.3844  1.1213 -0.4479
  116POPC    HS15439   6.034   0.304   2.767 -0.9374  1.2362 -0.6241
  116POPC   O2115440   6.021   0.480   2.882 -0.2016 -0.8590  0.1175
  116POPC   C2115441   5.900   0.458   2.919  0.1235 -0.7929 -0.0877
  116POPC   O2215442   5.820   0.376   2.871 -0.0267 -0.1774 -0.3807
  116POPC   C2215443   5.867   0.554   3.033 -0.6535  0.0962  0.4025
  116POPC   H2R15444   5.757   0.565   3.043 -0.5753  0.3475  1.0267
  116POPC   H2S15445   5.917   0.647   3.001  0.2307 -0.5819 -0.2535
  116POPC    C315446   6.214   0.410   2.752  0.3954  0.0154 -0.3109
  116POPC    HX15447   6.257   0.512   2.742 -0.8743  0.3986 -2.6402
  116POPC    HY15448   6.242   0.353   2.661  1.9403 -0.4693  0.4224
  116POPC   O3115449   6.262   0.346   2.875 -0.1428 -0.3059  0.3301
  116POPC   C3115450   6.378   0.377   2.931  0.1933  0.7148  0.1807
  116POPC   O3215451   6.458   0.466   2.895 -0.1231  0.3873 -0.2672
  116POPC   C3215452   6.388   0.296   3.061 -0.0504  0.0523 -0.3170
  116POPC   H2X15453   6.350   0.196   3.033  0.5756  0.0882 -1.3379
  116POPC   H2Y15454   6.342   0.356   3.143  1.7731  1.6966 -0.4226
  116POPC   C2315455   5.951   0.516   3.164  0.0718  0.4210  0.4085
  116POPC   H3R15456   5.933   0.596   3.240 -1.5098 -0.1751  0.6953
  116POPC   H3S15457   6.061   0.507   3.150  0.4319  3.0586  0.9249
  116POPC   C2415458   5.900   0.381   3.227  0.5284 -0.3527  0.2436
  116POPC   H4R15459   5.952   0.373   3.325  0.6452 -1.0675  0.1288
  116POPC   H4S15460   5.935   0.294   3.166  1.1253 -0.5856  0.8917
  116POPC   C2515461   5.742   0.384   3.237 -0.1760  0.0286  0.4759
  116POPC   H5R15462   5.706   0.370   3.133 -0.7007 -1.3296  0.8208
  116POPC   H5S15463   5.707   0.480   3.282 -0.6988 -0.4397  1.0740
  116POPC   C2615464   5.683   0.278   3.324 -0.4109 -0.8748 -0.1530
  116POPC   H6R15465   5.682   0.317   3.428 -1.5422  0.0302 -0.4882
  116POPC   H6S15466   5.742   0.185   3.311  0.0130 -0.7661  0.8480
  116POPC   C2715467   5.533   0.246   3.295  0.5297 -0.3025 -0.6948
  116POPC   H7R15468   5.531   0.239   3.185  1.4678 -1.4750 -0.6502
  116POPC   H7S15469   5.477   0.338   3.325 -1.1535 -0.7618 -2.2410
  116POPC   C2815470   5.483   0.119   3.363  0.0695  0.4995  0.4015
  116POPC   H8R15471   5.534   0.030   3.319  0.5788  1.0624 -0.1686
  116POPC   H8S15472   5.382   0.115   3.317  0.7662  1.2114 -1.2741
  116POPC   C2915473   5.481   0.116   3.511  0.6831 -0.0815  0.0744
  116POPC   H9115474   5.406   0.185   3.552  0.4969 -0.1171 -0.1998
  116POPC  C21015475   5.529   0.030   3.600  0.3561  0.7913 -0.1651
  116POPC  H10115476   5.502   0.054   3.704 -1.2010  1.0393 -0.5956
  116POPC  C21115477   5.618  -0.087   3.573  0.4685  0.1430 -0.2711
  116POPC  H11R15478   5.693  -0.093   3.654 -0.1483 -1.8575  0.2206
  116POPC  H11S15479   5.677  -0.073   3.480 -1.6085  0.2498 -1.6394
  116POPC  C21215480   5.530  -0.212   3.551  0.6970  0.1478 -0.7363
  116POPC  H12R15481   5.445  -0.195   3.481 -0.8992  1.1857  1.3174
  116POPC  H12S15482   5.484  -0.225   3.652  1.7433  0.7162 -0.1720
  116POPC  C21315483   5.618  -0.337   3.535 -0.5471 -0.2512  0.1396
  116POPC  H13R15484   5.692  -0.354   3.616 -1.0312 -0.0668  0.6227
  116POPC  H13S15485   5.673  -0.312   3.441 -1.8284  0.6796 -0.3912
  116POPC  C21415486   5.535  -0.462   3.511  0.2423  0.6711 -0.4075
  116POPC  H14R15487   5.447  -0.467   3.580  0.9527 -2.4726  0.4514
  116POPC  H14S15488   5.588  -0.557   3.533  2.7768  1.9715 -0.4650
  116POPC  C21515489   5.504  -0.477   3.362 -0.5090  0.5436 -0.2656
  116POPC  H15R15490   5.600  -0.477   3.307 -0.7935  2.2687 -0.8240
  116POPC  H15S15491   5.457  -0.388   3.317 -0.6993 -0.1772 -1.5468
  116POPC  C21615492   5.415  -0.597   3.329 -0.2139 -0.0375  0.0648
  116POPC  H16R15493   5.317  -0.585   3.378 -0.2409  2.0940 -0.4282
  116POPC  H16S15494   5.461  -0.683   3.382 -1.0407 -1.8473 -2.0062
  116POPC  C21715495   5.397  -0.645   3.184  0.6530 -0.3091  0.3370
  116POPC  H17R15496   5.500  -0.646   3.141 -0.1671 -2.5841 -1.7959
  116POPC  H17S15497   5.338  -0.564   3.136  2.7492  0.3181 -1.3292
  116POPC  C21815498   5.343  -0.786   3.166  0.0751 -0.3634  0.6269
  116POPC  H18R15499   5.356  -0.815   3.060  4.1737  2.0066  0.2702
  116POPC  H18S15500   5.234  -0.787   3.192 -1.0253 -0.9139 -3.3618
  116POPC  H18T15501   5.399  -0.870   3.211 -0.7893 -1.1680  0.2381
  116POPC   C3315502   6.539   0.270   3.105  0.3027  0.2024  1.1933
  116POPC   H3X15503   6.564   0.337   3.190  2.0850 -1.4344  2.0498
  116POPC   H3Y15504   6.611   0.290   3.023 -2.4971 -0.0294 -1.5173
  116POPC   C3415505   6.555   0.123   3.158 -0.1885 -0.3781  0.0699
  116POPC   H4X15506   6.531   0.048   3.079  2.1475 -2.3493  1.0853
  116POPC   H4Y15507   6.483   0.118   3.242  0.8314 -0.4260  0.9591
  116POPC   C3515508   6.691   0.096   3.216  0.2920 -0.1067  0.1030
  116POPC   H5X15509   6.706   0.141   3.317 -1.8542  2.9359 -0.7978
  116POPC   H5Y15510   6.770   0.146   3.155  0.9670  0.1070  1.1181
  116POPC   C3615511   6.716  -0.054   3.204 -0.1184 -0.1948 -0.0259
  116POPC   H6X15512   6.713  -0.063   3.093  1.7259  1.5956 -0.2886
  116POPC   H6Y15513   6.634  -0.115   3.249 -0.4336 -1.7617 -2.5374
  116POPC   C3715514   6.849  -0.102   3.264 -0.1833 -0.1371 -0.0420
  116POPC   H7X15515   6.927  -0.026   3.240  0.9299 -1.2346  0.0346
  116POPC   H7Y15516   6.869  -0.198   3.214 -1.9609  0.8359 -2.8667
  116POPC   C3815517   6.836  -0.122   3.411  0.1312 -0.9000  0.5457
  116POPC   H8X15518   6.756  -0.195   3.436 -0.6865 -0.1545  0.1683
  116POPC   H8Y15519   6.805  -0.026   3.458  3.8811  0.0493  1.4675
  116POPC   C3915520   6.975  -0.148   3.477 -0.1471 -0.3340 -0.7044
  116POPC   H9X15521   7.016  -0.240   3.431 -0.2307  0.4704 -2.5009
  116POPC   H9Y15522   6.965  -0.164   3.586 -0.7970 -4.5605 -1.2144
  116POPC  C31015523   7.080  -0.036   3.461  0.3546 -0.7596 -0.5992
  116POPC  H10X15524   7.106  -0.060   3.355 -0.7529 -5.0959 -0.0659
  116POPC  H10Y15525   7.174  -0.055   3.517  0.4280  1.9555  0.3231
  116POPC  C31115526   7.033   0.114   3.477  0.0161 -0.2871 -0.5431
  116POPC  H11X15527   7.010   0.136   3.584  0.0592  1.2171 -0.8287
  116POPC  H11Y15528   6.936   0.127   3.425 -0.3819  0.1202  0.2827
  116POPC  C31215529   7.137   0.209   3.424 -0.3783  0.1839 -0.2517
  116POPC  H12X15530   7.161   0.188   3.317 -0.1108  0.0757 -0.1724
  116POPC  H12Y15531   7.230   0.184   3.480 -1.3674 -0.8649  0.9861
  116POPC  C31315532   7.090   0.354   3.449 -0.2828 -0.2963 -0.2208
  116POPC  H13X15533   7.054   0.367   3.553 -1.0714 -1.0110 -0.3966
  116POPC  H13Y15534   7.004   0.380   3.384  1.4091 -2.1258 -3.4161
  116POPC  C31415535   7.210   0.459   3.431 -0.3400  0.0380 -0.4411
  116POPC  H14X15536   7.232   0.468   3.322  2.0181  2.1020  0.1258
  116POPC  H14Y15537   7.299   0.416   3.481 -2.2834 -1.8767  1.6437
  116POPC  C31515538   7.183   0.598   3.492  0.0785  0.5644 -0.3672
  116POPC  H15X15539   7.193   0.594   3.603  1.2512 -0.4460 -0.4914
  116POPC  H15Y15540   7.078   0.627   3.469 -0.3141  0.0683  0.7362
  116POPC  C31615541   7.288   0.711   3.460 -0.2036  0.2307  0.5948
  116POPC  H16X15542   7.255   0.807   3.504  0.8003  0.5354  0.7200
  116POPC  H16Y15543   7.288   0.722   3.349 -0.2280  0.0723  0.5783
  116POPC  H16Z15544   7.385   0.675   3.502 -1.0994 -1.5146  1.2797
  117POPC     N15545   6.930   0.591   2.065 -0.1018 -0.2428  0.2463
  117POPC   C1215546   6.938   0.721   2.130 -0.7732  0.3574 -0.0471
  117POPC  H12A15547   6.850   0.732   2.190 -0.8502  1.0170 -0.2745
  117POPC  H12B15548   6.936   0.809   2.067 -2.0681  0.7234  0.4824
  117POPC   C1315549   6.903   0.480   2.169 -0.2380  0.6024 -0.1955
  117POPC  H13A15550   6.879   0.389   2.116  1.3626  0.8627 -1.4504
  117POPC  H13B15551   6.990   0.472   2.232 -0.7577 -1.0281  0.3720
  117POPC  H13C15552   6.813   0.496   2.228 -0.6471 -2.4032  0.1577
  117POPC   C1415553   6.819   0.575   1.964 -0.0947  0.6766 -0.3867
  117POPC  H14A15554   6.846   0.646   1.887  0.0785  2.0166  0.8623
  117POPC  H14B15555   6.819   0.475   1.922 -1.8304 -1.5501  4.1953
  117POPC  H14C15556   6.723   0.604   2.002 -0.0091  0.6166 -0.1204
  117POPC   C1515557   7.059   0.562   1.992 -0.0321  0.6078  0.1285
  117POPC  H15A15558   7.058   0.462   1.949 -1.4333  1.6584 -2.5397
  117POPC  H15B15559   7.138   0.564   2.065 -0.5363 -0.7109  0.7464
  117POPC  H15C15560   7.085   0.628   1.910  1.7048 -2.2135 -1.7950
  117POPC   C1115561   7.057   0.733   2.233  0.0674 -0.3283  0.2817
  117POPC  H11A15562   7.080   0.640   2.288  0.4145 -0.3108  0.1661
  117POPC  H11B15563   7.025   0.793   2.322 -1.2583 -1.5163  0.6317
  117POPC     P15564   7.204   0.933   2.161 -0.3744 -0.1627 -0.2538
  117POPC   O1315565   7.099   0.995   2.074  0.3994 -0.0394 -0.0397
  117POPC   O1415566   7.345   0.953   2.113  0.1317  0.2904  0.4349
  117POPC   O1215567   7.179   0.772   2.174  0.1731  0.4868  0.2545
  117POPC   O1115568   7.190   0.991   2.313 -0.1551  0.4093 -0.3099
  117POPC    C115569   7.264   0.939   2.424 -0.2821  0.5480 -0.3351
  117POPC    HA15570   7.372   0.940   2.397 -0.2675 -0.9292 -0.4268
  117POPC    HB15571   7.246   0.831   2.441 -0.8350  0.5711 -0.7685
  117POPC    C215572   7.254   1.027   2.550  0.0023  0.2721 -0.3468
  117POPC    HS15573   7.335   0.988   2.616 -0.0199  0.3204 -0.2900
  117POPC   O2115574   7.130   1.001   2.612  0.2577  0.0419  0.4009
  117POPC   C2115575   7.117   0.881   2.664 -0.2028  0.1501  0.5391
  117POPC   O2215576   7.200   0.789   2.674 -0.1706  0.3750 -0.1720
  117POPC   C2215577   6.973   0.861   2.721  0.0051  0.1979  1.0824
  117POPC   H2R15578   6.977   0.756   2.756 -1.0582 -0.5431 -0.8524
  117POPC   H2S15579   6.902   0.861   2.636  0.7878 -1.8724  0.3600
  117POPC    C315580   7.276   1.177   2.534  0.4082 -0.4620 -0.3369
  117POPC    HX15581   7.181   1.213   2.488  1.1981  0.1338 -1.5594
  117POPC    HY15582   7.361   1.198   2.465  0.4482  1.7419  0.3150
  117POPC   O3115583   7.303   1.252   2.659 -0.4138  0.5658  0.2476
  117POPC   C3115584   7.431   1.260   2.699  0.3662 -0.5570 -0.0220
  117POPC   O3215585   7.514   1.182   2.660 -0.3260  0.0132  0.5734
  117POPC   C3215586   7.454   1.379   2.794  0.4203  0.7385 -0.7911
  117POPC   H2X15587   7.371   1.454   2.789  1.2588  1.7573  0.0862
  117POPC   H2Y15588   7.543   1.441   2.771  0.4400  1.8483  1.9360
  117POPC   C2315589   6.934   0.958   2.829  0.2779 -0.1802  0.1389
  117POPC   H3R15590   7.015   0.993   2.897 -0.9740  1.3169  0.9184
  117POPC   H3S15591   6.849   0.914   2.885 -1.6640 -0.7376 -3.0416
  117POPC   C2415592   6.888   1.091   2.765  1.3936 -0.2189 -0.3423
  117POPC   H4R15593   6.802   1.075   2.696  1.1416 -1.9770  0.3497
  117POPC   H4S15594   6.975   1.134   2.710 -0.4035  2.3608 -1.4233
  117POPC   C2515595   6.832   1.191   2.867 -0.5214  0.2039  0.3259
  117POPC   H5R15596   6.776   1.262   2.803  0.0090 -0.8475 -1.3900
  117POPC   H5S15597   6.913   1.249   2.917  0.3462 -1.5199  0.9871
  117POPC   C2615598   6.732   1.138   2.977 -0.4007  0.1041  0.3401
  117POPC   H6R15599   6.682   1.048   2.937 -0.0969 -1.8928  4.0644
  117POPC   H6S15600   6.651   1.210   3.002 -0.8842 -0.0384 -0.7648
  117POPC   C2715601   6.804   1.088   3.105  0.0177 -0.4979 -0.0032
  117POPC   H7R15602   6.876   1.167   3.136  0.8755 -0.8821 -0.9674
  117POPC   H7S15603   6.866   1.001   3.076  0.3989 -0.0652 -0.5234
  117POPC   C2815604   6.694   1.062   3.210  0.2313 -0.2569 -0.3418
  117POPC   H8R15605   6.636   0.969   3.187  0.5998 -0.5505 -0.1000
  117POPC   H8S15606   6.617   1.142   3.206  0.1807 -0.3121 -0.5048
  117POPC   C2915607   6.753   1.049   3.350 -0.2954 -0.7846  0.6718
  117POPC   H9115608   6.848   0.996   3.366  0.8448  0.9370 -0.2006
  117POPC  C21015609   6.715   1.111   3.460 -0.2644 -0.1773 -0.2044
  117POPC  H10115610   6.773   1.087   3.550 -0.8989  0.5213  0.4105
  117POPC  C21115611   6.585   1.199   3.480 -0.6739 -0.3042  0.4169
  117POPC  H11R15612   6.499   1.132   3.502 -0.7604 -1.0856 -1.9444
  117POPC  H11S15613   6.568   1.265   3.392  0.6322  1.3480  1.3366
  117POPC  C21215614   6.602   1.308   3.592  0.5246  0.4148 -0.4835
  117POPC  H12R15615   6.504   1.358   3.588  0.6210  1.1218  3.1066
  117POPC  H12S15616   6.684   1.379   3.565  0.1682  1.6268  1.4767
  117POPC  C21315617   6.613   1.245   3.737 -0.1904  0.2009 -0.5006
  117POPC  H13R15618   6.675   1.156   3.716 -0.4164 -0.0720 -0.0227
  117POPC  H13S15619   6.513   1.205   3.762  0.2346 -0.2776  0.4828
  117POPC  C21415620   6.666   1.347   3.836  0.2366 -0.1965  0.4271
  117POPC  H14R15621   6.597   1.433   3.848 -2.2969 -1.2901 -4.1762
  117POPC  H14S15622   6.762   1.384   3.793 -1.0588  2.9229 -0.0499
  117POPC  C21515623   6.695   1.286   3.974  0.7493  0.1304  0.6071
  117POPC  H15R15624   6.757   1.195   3.964  0.6008 -0.0038  0.9047
  117POPC  H15S15625   6.602   1.239   4.014  0.1976  1.1939  0.6254
  117POPC  C21615626   6.748   1.382   4.070  1.3555 -1.0881  0.4533
  117POPC  H16R15627   6.668   1.457   4.084  2.1745 -0.2610  0.8518
  117POPC  H16S15628   6.841   1.429   4.032  0.4622 -0.2733 -0.7866
  117POPC  C21715629   6.788   1.323   4.201 -0.1136  0.6212 -0.0967
  117POPC  H17R15630   6.834   1.401   4.266 -1.2031  0.4632  0.9145
  117POPC  H17S15631   6.872   1.253   4.181  0.0683  1.2214 -1.5390
  117POPC  C21815632   6.667   1.256   4.277  0.7325  0.3428 -0.1348
  117POPC  H18R15633   6.695   1.223   4.380  0.9180 -0.5967 -0.4812
  117POPC  H18S15634   6.617   1.169   4.230 -0.9746 -0.6523  3.2077
  117POPC  H18T15635   6.581   1.326   4.280 -0.2634 -0.8565  1.7422
  117POPC   C3315636   7.462   1.326   2.936 -0.0790  0.2874 -0.1129
  117POPC   H3X15637   7.453   1.403   3.016 -2.8069 -0.0050 -0.0565
  117POPC   H3Y15638   7.561   1.279   2.955 -0.3105  0.2258  1.0644
  117POPC   C3415639   7.348   1.223   2.966  0.7264 -0.1123 -0.0675
  117POPC   H4X15640   7.340   1.129   2.908  2.6360  0.0369 -0.6287
  117POPC   H4Y15641   7.254   1.276   2.938  0.9426  1.6027  2.1598
  117POPC   C3515642   7.349   1.184   3.110  0.1201  0.4707 -0.2716
  117POPC   H5X15643   7.316   1.270   3.172  0.4507  0.0823  0.4572
  117POPC   H5Y15644   7.450   1.155   3.148 -1.0670 -3.6119  0.2653
  117POPC   C3615645   7.256   1.068   3.142 -0.6261 -0.1169  0.0275
  117POPC   H6X15646   7.300   0.977   3.095  0.6838  0.0732  0.8449
  117POPC   H6Y15647   7.153   1.067   3.099  0.0559 -0.8810 -1.6871
  117POPC   C3715648   7.230   1.045   3.291  0.3219  0.2585 -0.1362
  117POPC   H7X15649   7.325   1.041   3.347  0.6691  1.0410 -0.6453
  117POPC   H7Y15650   7.192   0.943   3.309 -2.5209  1.3601  0.6670
  117POPC   C3815651   7.135   1.148   3.360  0.4941  0.7353 -0.8273
  117POPC   H8X15652   7.046   1.160   3.294  0.0050 -1.3601 -0.6233
  117POPC   H8Y15653   7.176   1.251   3.357 -1.8177  1.7655  0.1631
  117POPC   C3915654   7.114   1.116   3.511 -0.5491  0.0330 -0.6255
  117POPC   H9X15655   7.213   1.081   3.546 -0.3649 -1.7849 -2.7049
  117POPC   H9Y15656   7.046   1.029   3.525  0.4073 -0.6286  0.0137
  117POPC  C31015657   7.056   1.226   3.603 -0.2943 -0.0653  0.5825
  117POPC  H10X15658   6.954   1.258   3.576  0.0896  0.8833  0.2273
  117POPC  H10Y15659   7.114   1.316   3.575 -1.0497  0.3451  0.3204
  117POPC  C31115660   7.068   1.208   3.755 -1.1629  0.1887  0.9574
  117POPC  H11X15661   7.163   1.160   3.785 -1.5468 -0.5665  1.0029
  117POPC  H11Y15662   7.000   1.121   3.771  1.0115 -2.1588 -1.5666
  117POPC  C31215663   7.045   1.334   3.834 -0.1488  0.4677 -0.4174
  117POPC  H12X15664   7.001   1.318   3.935  0.1577 -0.9668 -0.5020
  117POPC  H12Y15665   6.970   1.388   3.772  0.4867  0.1430 -1.4829
  117POPC  C31315666   7.164   1.431   3.849  0.7339 -0.0310 -0.0100
  117POPC  H13X15667   7.231   1.417   3.762 -0.6814 -0.9449 -0.9933
  117POPC  H13Y15668   7.219   1.396   3.939 -0.6184 -0.2440  0.7620
  117POPC  C31415669   7.136   1.582   3.876  0.3004  0.0643 -0.5971
  117POPC  H14X15670   7.068   1.598   3.963  0.5797  1.2254 -0.5696
  117POPC  H14Y15671   7.065   1.611   3.795  0.1019  0.3685 -0.3164
  117POPC  C31515672   7.259   1.670   3.869 -0.5079 -0.9260 -0.3714
  117POPC  H15X15673   7.302   1.667   3.766 -2.6692  3.2276 -1.6363
  117POPC  H15Y15674   7.343   1.631   3.930 -0.3526  0.6463  0.4791
  117POPC  C31615675   7.218   1.812   3.903 -0.2674  0.9439 -0.5444
  117POPC  H16X15676   7.314   1.859   3.932  0.3857 -1.0465  0.6714
  117POPC  H16Y15677   7.160   1.821   3.998  1.8408  0.7125  0.8155
  117POPC  H16Z15678   7.178   1.870   3.817  3.6869  2.4304 -1.5643
  118POPC     N15679   5.377   0.527   2.293 -0.0461  0.0982 -0.6363
  118POPC   C1215680   5.386   0.439   2.168  0.1481  0.1762 -0.0552
  118POPC  H12A15681   5.342   0.342   2.187  0.4918  0.0068 -0.1053
  118POPC  H12B15682   5.491   0.422   2.149  0.2707 -0.1909  0.8967
  118POPC   C1315683   5.461   0.476   2.401  0.3838 -0.2628 -0.6012
  118POPC  H13A15684   5.453   0.368   2.406 -0.1902 -0.1874  0.3646
  118POPC  H13B15685   5.567   0.490   2.382  0.4060 -1.0577 -1.1180
  118POPC  H13C15686   5.435   0.521   2.496 -0.7167  2.2910 -2.0066
  118POPC   C1415687   5.410   0.671   2.262  0.8452 -0.2787  0.4299
  118POPC  H14A15688   5.509   0.676   2.219  0.7110  0.6781  0.1979
  118POPC  H14B15689   5.336   0.698   2.188  2.0048 -0.7256 -0.9458
  118POPC  H14C15690   5.407   0.729   2.353 -2.1553 -1.3361  1.1221
  118POPC   C1515691   5.245   0.527   2.353  0.4645 -0.2672 -0.1262
  118POPC  H15A15692   5.175   0.569   2.282  1.7232  0.4216 -0.9936
  118POPC  H15B15693   5.245   0.585   2.444 -0.2706  0.7173 -0.7283
  118POPC  H15C15694   5.210   0.429   2.384  0.1004  0.5674  2.3475
  118POPC   C1115695   5.335   0.493   2.034  0.6350 -0.5515 -0.9763
  118POPC  H11A15696   5.330   0.407   1.964  1.5314 -1.9824  0.6456
  118POPC  H11B15697   5.405   0.567   1.988  0.3615  0.2711 -0.1117
  118POPC     P15698   5.084   0.540   1.963  0.7516 -0.2667 -0.5050
  118POPC   O1315699   5.126   0.525   1.819  0.2276 -0.1175 -0.1893
  118POPC   O1415700   4.987   0.643   1.999 -0.8114 -0.3741  0.1165
  118POPC   O1215701   5.207   0.551   2.051  0.2192  0.4331 -0.2647
  118POPC   O1115702   5.019   0.402   2.002  0.1105 -1.0555 -0.3598
  118POPC    C115703   4.998   0.370   2.141  0.1612 -0.2864 -0.5062
  118POPC    HA15704   5.005   0.457   2.210  0.4745 -0.8583  0.1959
  118POPC    HB15705   5.071   0.290   2.168 -2.2690 -2.2422  0.7160
  118POPC    C215706   4.858   0.314   2.157  0.4882 -0.0680 -0.0024
  118POPC    HS15707   4.828   0.278   2.057  0.0784 -0.0036  0.0963
  118POPC   O2115708   4.770   0.425   2.202  0.2068 -0.0930  0.3017
  118POPC   C2115709   4.639   0.392   2.185  0.1402  0.2799 -0.1987
  118POPC   O2215710   4.600   0.286   2.139  0.0855 -0.2210 -0.4076
  118POPC   C2215711   4.552   0.515   2.205 -0.2464 -0.1466  0.2824
  118POPC   H2R15712   4.536   0.571   2.110 -3.8139 -0.3904  0.6186
  118POPC   H2S15713   4.600   0.591   2.272 -0.9629 -2.4606  3.6800
  118POPC    C315714   4.852   0.188   2.250 -0.7198 -0.4758  0.3610
  118POPC    HX15715   4.942   0.129   2.222 -0.3027  0.3959 -0.2272
  118POPC    HY15716   4.770   0.126   2.208 -1.2150  0.6171 -0.3341
  118POPC   O3115717   4.831   0.207   2.393 -0.1384 -0.2259 -0.2147
  118POPC   C3115718   4.936   0.230   2.471 -0.8045  0.1086  0.3583
  118POPC   O3215719   5.053   0.246   2.435 -0.4258 -0.1020 -0.1937
  118POPC   C3215720   4.893   0.226   2.617  0.3673  0.3496  0.2629
  118POPC   H2X15721   4.921   0.129   2.664 -2.7366 -0.7793  0.0436
  118POPC   H2Y15722   4.783   0.231   2.635  0.4717  2.5702  0.6268
  118POPC   C2315723   4.413   0.486   2.260  0.2287  0.0449  0.2836
  118POPC   H3R15724   4.379   0.388   2.222  0.4093  0.0190  0.1844
  118POPC   H3S15725   4.340   0.548   2.204 -0.2941  0.1166  1.0302
  118POPC   C2415726   4.403   0.504   2.408  0.5104 -0.0682 -0.3746
  118POPC   H4R15727   4.432   0.609   2.431  2.3430 -0.2024 -1.7578
  118POPC   H4S15728   4.489   0.441   2.442  1.8753  1.3548 -1.0390
  118POPC   C2515729   4.272   0.461   2.479  0.1271  0.2731  0.1351
  118POPC   H5R15730   4.192   0.519   2.429  0.2437  0.8361  0.5887
  118POPC   H5S15731   4.274   0.486   2.588 -3.3061 -0.1234  0.3923
  118POPC   C2615732   4.243   0.319   2.469  0.8620  0.4813  0.0115
  118POPC   H6R15733   4.320   0.254   2.515 -0.1085 -1.9308 -1.5871
  118POPC   H6S15734   4.251   0.289   2.363 -0.5142 -1.9058  0.5109
  118POPC   C2715735   4.101   0.275   2.522  0.1213  0.5709  0.3278
  118POPC   H7R15736   4.033   0.334   2.456  0.0098 -0.3495 -0.4103
  118POPC   H7S15737   4.097   0.295   2.631 -0.7817 -0.7026  0.5553
  118POPC   C2815738   4.064   0.125   2.507  0.4444  0.2360 -0.0922
  118POPC   H8R15739   4.103   0.070   2.595 -0.6479 -0.3908  0.0156
  118POPC   H8S15740   4.103   0.079   2.414 -2.1838 -2.4573 -0.0171
  118POPC   C2915741   3.914   0.109   2.507 -0.5620  0.6454 -0.0324
  118POPC   H9115742   3.860   0.142   2.417 -1.1458 -0.6545 -0.1759
  118POPC  C21015743   3.833   0.055   2.600 -1.2444 -0.8695  1.1422
  118POPC  H10115744   3.725   0.048   2.580 -1.3071  0.4504  0.9265
  118POPC  C21115745   3.879  -0.018   2.727  0.5450 -0.0458  0.6099
  118POPC  H11R15746   3.988  -0.034   2.730  0.6341  0.0847 -0.9720
  118POPC  H11S15747   3.826  -0.115   2.729  0.1962  0.0171 -1.9966
  118POPC  C21215748   3.849   0.057   2.855  0.1598  0.0631 -0.3962
  118POPC  H12R15749   3.882  -0.006   2.940  0.1212  0.2520 -0.2410
  118POPC  H12S15750   3.742   0.073   2.877  0.5182  2.4659 -0.0297
  118POPC  C21315751   3.933   0.191   2.889 -0.3191 -0.2056  0.4882
  118POPC  H13R15752   3.889   0.237   2.980 -2.2641 -0.2720 -0.3637
  118POPC  H13S15753   3.902   0.268   2.815  0.0752 -1.3176 -0.8799
  118POPC  C21415754   4.088   0.176   2.894  0.3189  0.0872  0.3552
  118POPC  H14R15755   4.118   0.123   2.801 -2.5125  1.7671 -1.6376
  118POPC  H14S15756   4.106   0.105   2.978  2.0470  0.2040  0.1358
  118POPC  C21515757   4.167   0.300   2.935  0.3941 -0.0949  0.0107
  118POPC  H15R15758   4.128   0.338   3.032  3.3539 -0.1845  1.3405
  118POPC  H15S15759   4.168   0.389   2.869 -0.9207  2.1928  2.8501
  118POPC  C21615760   4.313   0.270   2.957 -0.7133  0.3646 -0.3254
  118POPC  H16R15761   4.316   0.185   3.028  1.3086  0.4758 -0.2153
  118POPC  H16S15762   4.378   0.354   2.990  0.8670 -0.5244 -1.1104
  118POPC  C21715763   4.386   0.223   2.824  0.6380  0.5195 -0.2308
  118POPC  H17R15764   4.344   0.286   2.743 -0.6696  1.4519  1.1242
  118POPC  H17S15765   4.360   0.116   2.808  4.1619 -0.1649 -2.7458
  118POPC  C21815766   4.538   0.226   2.832 -0.1168  1.0390 -0.1805
  118POPC  H18R15767   4.571   0.166   2.920 -0.4940 -0.3608 -0.9629
  118POPC  H18S15768   4.568   0.329   2.859 -1.1831  1.0651  1.0551
  118POPC  H18T15769   4.572   0.178   2.738 -0.6607 -1.1908  0.6940
  118POPC   C3315770   4.962   0.335   2.705 -0.1349  0.4557  0.4677
  118POPC   H3X15771   4.937   0.436   2.664 -1.5646  0.6803  1.7975
  118POPC   H3Y15772   5.072   0.325   2.692 -0.2637 -1.9145  0.7989
  118POPC   C3415773   4.928   0.317   2.853 -0.5373 -0.3431 -0.5455
  118POPC   H4X15774   4.990   0.237   2.899  2.1780  0.4713 -2.4962
  118POPC   H4Y15775   4.820   0.292   2.858  0.0134 -3.1334 -0.7791
  118POPC   C3515776   4.951   0.449   2.929 -0.4810  0.1176  0.5552
  118POPC   H5X15777   4.895   0.540   2.901  1.2275  1.0650  0.0879
  118POPC   H5Y15778   5.059   0.469   2.912 -0.8513  2.0917  0.3650
  118POPC   C3615779   4.950   0.444   3.084  0.2484  0.2171  0.2788
  118POPC   H6X15780   5.010   0.357   3.119 -0.6320 -1.1349 -1.3754
  118POPC   H6Y15781   4.847   0.416   3.117 -0.1910 -1.1485 -2.0183
  118POPC   C3715782   5.001   0.566   3.158  0.7479 -0.4418  0.5505
  118POPC   H7X15783   4.949   0.660   3.129 -0.4589 -0.9907  0.9047
  118POPC   H7Y15784   5.107   0.579   3.126  0.0247  1.1886 -1.4043
  118POPC   C3815785   5.006   0.546   3.311  0.4396 -0.2313  0.0621
  118POPC   H8X15786   5.033   0.443   3.340 -0.5821 -0.0886  1.6713
  118POPC   H8Y15787   4.902   0.555   3.350  0.8431  2.9935  0.6852
  118POPC   C3915788   5.085   0.649   3.383 -0.8087 -0.0598 -0.0952
  118POPC   H9X15789   5.045   0.748   3.354 -0.1748  0.6364  1.3516
  118POPC   H9Y15790   5.183   0.643   3.330 -1.2166  0.3082 -0.9037
  118POPC  C31015791   5.083   0.655   3.533 -0.2273  0.2161 -0.0174
  118POPC  H10X15792   5.162   0.726   3.566  0.1284 -0.2970  0.2768
  118POPC  H10Y15793   5.112   0.556   3.576  4.9310  1.6700  0.5218
  118POPC  C31115794   4.941   0.693   3.577 -0.2815  0.2909 -0.2877
  118POPC  H11X15795   4.878   0.608   3.544 -0.4808  1.0000 -1.8358
  118POPC  H11Y15796   4.913   0.785   3.521 -0.2524  1.0506  0.8949
  118POPC  C31215797   4.906   0.707   3.722  0.5731 -0.5008 -0.3676
  118POPC  H12X15798   4.940   0.611   3.766 -0.9586 -1.0033 -0.2229
  118POPC  H12Y15799   4.795   0.711   3.733  0.5170 -3.5257  1.2624
  118POPC  C31315800   4.977   0.827   3.792 -0.4816 -0.2540  0.2787
  118POPC  H13X15801   5.079   0.833   3.750 -0.6393  1.3456  0.0478
  118POPC  H13Y15802   4.989   0.806   3.900  0.1464 -0.4819  0.1682
  118POPC  C31415803   4.909   0.963   3.781 -0.3680 -0.1598 -0.6323
  118POPC  H14X15804   4.807   0.960   3.824 -0.2331 -0.0496 -0.3015
  118POPC  H14Y15805   4.907   1.001   3.677 -0.4674 -0.2052 -0.6462
  118POPC  C31515806   4.977   1.062   3.866 -0.6148 -0.8230 -0.6865
  118POPC  H15X15807   5.068   1.098   3.813 -1.7341 -0.5936 -2.5486
  118POPC  H15Y15808   5.011   1.023   3.964 -2.1374  2.8664  1.5276
  118POPC  C31615809   4.893   1.185   3.902 -0.8697 -0.2991 -0.4656
  118POPC  H16X15810   4.818   1.155   3.978  1.2102 -0.8817  1.5008
  118POPC  H16Y15811   4.847   1.227   3.810  0.2579 -2.4904 -2.1215
  118POPC  H16Z15812   4.953   1.262   3.955 -0.0604 -2.5392  2.1533
  119POPC     N15813   4.707   1.949   1.893 -0.7860  0.5239  0.5317
  119POPC   C1215814   4.800   2.004   1.998 -0.3698  0.5534 -0.0675
  119POPC  H12A15815   4.747   2.070   2.066 -2.1240 -1.1530  0.3256
  119POPC  H12B15816   4.865   2.076   1.952 -1.0556  1.0902 -0.2246
  119POPC   C1315817   4.795   1.896   1.781  0.0851  0.3693 -0.6800
  119POPC  H13A15818   4.732   1.854   1.703  0.4313  0.4814 -1.0215
  119POPC  H13B15819   4.847   1.982   1.743 -2.2050  1.7850 -0.8303
  119POPC  H13C15820   4.863   1.823   1.822 -0.3970 -0.3882 -1.2037
  119POPC   C1415821   4.623   1.842   1.949  0.5168 -0.2989  0.1969
  119POPC  H14A15822   4.557   1.880   2.026  1.9175  0.6554  0.9709
  119POPC  H14B15823   4.566   1.781   1.881 -0.9536  1.5486 -0.3036
  119POPC  H14C15824   4.680   1.777   2.014  1.2564  1.8237  1.7900
  119POPC   C1515825   4.621   2.058   1.832  0.0198 -0.2880  0.4821
  119POPC  H15A15826   4.682   2.128   1.779 -1.0803  0.6402  0.4118
  119POPC  H15B15827   4.559   2.107   1.907  0.9401  0.1489  0.9734
  119POPC  H15C15828   4.553   2.013   1.761 -1.1976  0.0002  1.4247
  119POPC   C1115829   4.893   1.906   2.072  0.5621 -0.2655  0.0143
  119POPC  H11A15830   4.829   1.828   2.120 -0.1648  0.3636  0.0737
  119POPC  H11B15831   4.932   1.946   2.168 -1.1632 -5.0176  3.1041
  119POPC     P15832   5.111   1.935   1.940  0.4306  0.2134 -0.1031
  119POPC   O1315833   5.058   2.061   1.893 -0.0702 -0.3457 -0.3018
  119POPC   O1415834   5.190   1.852   1.841  0.2570  0.3492 -0.7419
  119POPC   O1215835   5.000   1.845   1.998 -0.2160  0.4020  0.3325
  119POPC   O1115836   5.198   1.964   2.062 -0.1042 -0.1594  0.6989
  119POPC    C115837   5.268   1.869   2.143 -0.2979 -0.3462 -0.5111
  119POPC    HA15838   5.364   1.911   2.179 -2.2459  2.0839  2.3676
  119POPC    HB15839   5.288   1.775   2.088  3.4969  0.5520 -0.9495
  119POPC    C215840   5.194   1.828   2.278  0.4084 -0.0650  0.2565
  119POPC    HS15841   5.101   1.772   2.254 -1.0145  1.2048  2.4705
  119POPC   O2115842   5.163   1.948   2.358  0.5813 -0.0448  0.0895
  119POPC   C2115843   5.058   1.940   2.432 -0.0758 -0.7818 -0.0306
  119POPC   O2215844   4.983   1.837   2.442 -0.0072 -0.5564  0.0636
  119POPC   C2215845   5.043   2.072   2.505  0.0878 -0.3758 -0.4306
  119POPC   H2R15846   5.053   2.160   2.439 -0.1351 -0.2752 -0.3304
  119POPC   H2S15847   5.124   2.078   2.582 -1.0903  2.6888  0.7004
  119POPC    C315848   5.288   1.729   2.356 -0.0889 -0.0515  0.4201
  119POPC    HX15849   5.392   1.766   2.346  0.5226 -2.0690 -1.6131
  119POPC    HY15850   5.280   1.635   2.297  1.0359  1.2492 -1.9487
  119POPC   O3115851   5.257   1.712   2.499 -0.2044  0.5622 -0.5054
  119POPC   C3115852   5.172   1.621   2.536 -0.4062 -0.4200  0.4445
  119POPC   O3215853   5.119   1.540   2.462 -0.0832 -0.0765 -0.3278
  119POPC   C3215854   5.138   1.643   2.685 -0.5658 -0.0202 -0.4210
  119POPC   H2X15855   5.107   1.749   2.700  0.1222  0.0253  0.8620
  119POPC   H2Y15856   5.235   1.633   2.738 -0.5099  1.6940 -0.1515
  119POPC   C2315857   4.910   2.098   2.582  0.0073 -0.7303  0.2556
  119POPC   H3R15858   4.819   2.080   2.522 -0.1075  0.6463 -0.0131
  119POPC   H3S15859   4.913   2.204   2.616 -0.2417 -0.7689  0.3945
  119POPC   C2415860   4.905   2.011   2.705 -0.7451 -0.1836 -0.2040
  119POPC   H4R15861   4.995   2.034   2.765  0.7634 -0.8746 -2.1026
  119POPC   H4S15862   4.907   1.900   2.702  0.1827 -0.2261  1.1829
  119POPC   C2515863   4.774   2.049   2.777 -0.3104  0.2108 -0.4818
  119POPC   H5R15864   4.681   2.022   2.723 -1.6515 -0.6320  2.0555
  119POPC   H5S15865   4.771   2.160   2.780  1.9788  0.3292 -0.9332
  119POPC   C2615866   4.765   1.980   2.913  0.8032 -0.5594 -0.2606
  119POPC   H6R15867   4.717   2.056   2.979 -1.8852  0.0296 -2.6909
  119POPC   H6S15868   4.869   1.975   2.952  0.7654 -3.4044 -0.3107
  119POPC   C2715869   4.702   1.841   2.919  0.0185  0.3198  0.1125
  119POPC   H7R15870   4.742   1.786   2.831  1.4363  0.3796  0.6865
  119POPC   H7S15871   4.591   1.835   2.912  0.1064 -1.8630 -0.1751
  119POPC   C2815872   4.735   1.753   3.046 -0.6239  0.2006 -0.1824
  119POPC   H8R15873   4.845   1.745   3.051 -0.4870  2.3282  3.0633
  119POPC   H8S15874   4.701   1.647   3.038  0.8799 -0.2033 -1.6876
  119POPC   C2915875   4.687   1.814   3.172 -0.3726  0.3873  0.2078
  119POPC   H9115876   4.714   1.918   3.194 -0.0809 -0.0342  2.0286
  119POPC  C21015877   4.623   1.755   3.279 -1.2853 -0.8169  0.5957
  119POPC  H10115878   4.584   1.806   3.369 -1.5924  0.5585 -0.2843
  119POPC  C21115879   4.564   1.614   3.255 -0.0846  0.9631  0.3217
  119POPC  H11R15880   4.499   1.607   3.165  1.5097  0.5607 -0.8454
  119POPC  H11S15881   4.493   1.599   3.340  0.5673  0.1396  0.7309
  119POPC  C21215882   4.658   1.492   3.262 -0.1095  1.2775  0.8267
  119POPC  H12R15883   4.740   1.514   3.333 -0.3850 -2.5543  2.5781
  119POPC  H12S15884   4.715   1.479   3.168 -0.1619  0.9652  0.8346
  119POPC  C21315885   4.581   1.356   3.281 -0.0442 -0.8329 -0.3313
  119POPC  H13R15886   4.625   1.266   3.232  0.3734 -1.0176  0.3631
  119POPC  H13S15887   4.477   1.370   3.244  0.7557  1.4249 -1.8935
  119POPC  C21415888   4.570   1.315   3.427 -0.0224 -0.3550 -0.1116
  119POPC  H14R15889   4.498   1.373   3.488  0.8795  0.8746 -0.1645
  119POPC  H14S15890   4.669   1.334   3.474  0.0931  0.4673 -0.6785
  119POPC  C21515891   4.551   1.164   3.436 -0.3827  0.4736 -0.2148
  119POPC  H15R15892   4.645   1.117   3.399 -0.1758  1.1727 -0.5959
  119POPC  H15S15893   4.471   1.132   3.367 -0.2277 -1.2371  0.3680
  119POPC  C21615894   4.521   1.122   3.587  0.5483  0.1063  0.0814
  119POPC  H16R15895   4.464   1.201   3.640  1.5281  0.1187  1.1589
  119POPC  H16S15896   4.621   1.111   3.634 -0.0692  2.0261  2.0105
  119POPC  C21715897   4.439   0.988   3.601 -0.0940  0.2275  0.4691
  119POPC  H17R15898   4.337   0.994   3.560 -0.4211 -0.7871  1.1000
  119POPC  H17S15899   4.425   0.974   3.710 -1.2020  0.2811  0.3446
  119POPC  C21815900   4.523   0.870   3.551  0.1334  0.2298  0.3251
  119POPC  H18R15901   4.624   0.866   3.597  0.8849 -0.0602 -1.2650
  119POPC  H18S15902   4.546   0.891   3.444  2.0252 -1.0346  0.4213
  119POPC  H18T15903   4.468   0.776   3.572  0.3205  0.3007  1.1527
  119POPC   C3315904   5.035   1.543   2.749 -0.5469 -0.1495  0.2984
  119POPC   H3X15905   5.050   1.443   2.703 -0.3868  0.8804 -2.0137
  119POPC   H3Y15906   4.936   1.588   2.723 -0.3120  1.1265  1.4995
  119POPC   C3415907   5.056   1.531   2.898  0.7111  0.5506  0.3072
  119POPC   H4X15908   5.010   1.618   2.951  1.1764  0.0403  1.5926
  119POPC   H4Y15909   5.165   1.529   2.915  0.6944  4.4983  2.2314
  119POPC   C3515910   5.006   1.403   2.964 -0.2236 -0.3549  0.4327
  119POPC   H5X15911   5.070   1.320   2.925 -0.3103 -0.3324  0.2389
  119POPC   H5Y15912   4.898   1.388   2.943 -0.4166 -0.2671  1.3303
  119POPC   C3615913   5.015   1.410   3.113 -0.0155  0.1552 -0.0864
  119POPC   H6X15914   4.939   1.481   3.152  1.4933  1.0772  1.3086
  119POPC   H6Y15915   5.115   1.454   3.134 -0.3163 -0.0739  2.0128
  119POPC   C3715916   4.985   1.279   3.188  0.4696  0.0066 -0.1426
  119POPC   H7X15917   5.069   1.209   3.171  0.6588 -0.0920  1.0950
  119POPC   H7Y15918   4.890   1.233   3.154  0.4799  0.7435 -1.2220
  119POPC   C3815919   4.984   1.290   3.342  0.7989  0.3219 -0.1673
  119POPC   H8X15920   4.965   1.186   3.378 -3.4345  0.4029 -1.6461
  119POPC   H8Y15921   4.900   1.356   3.372 -0.9150 -1.7522 -0.0813
  119POPC   C3915922   5.118   1.343   3.409  0.1194 -0.2664 -0.1509
  119POPC   H9X15923   5.127   1.450   3.379  0.5934 -0.5977 -1.2153
  119POPC   H9Y15924   5.210   1.295   3.372  0.9466  1.2098 -0.0873
  119POPC  C31015925   5.105   1.353   3.563 -0.5178  0.0439 -0.5915
  119POPC  H10X15926   5.074   1.252   3.597  0.6603 -0.2173 -0.2344
  119POPC  H10Y15927   5.021   1.424   3.576 -0.7902  0.5411 -4.1862
  119POPC  C31115928   5.234   1.400   3.633 -0.0880  0.3204 -0.2043
  119POPC  H11X15929   5.249   1.506   3.605  0.1274 -0.1083 -1.7938
  119POPC  H11Y15930   5.316   1.332   3.604 -0.7478 -1.9861  2.7586
  119POPC  C31215931   5.226   1.377   3.787  0.1567  0.1124 -0.4154
  119POPC  H12X15932   5.221   1.268   3.805  3.4775  0.0777  0.9091
  119POPC  H12Y15933   5.133   1.425   3.826 -0.8097  0.0019 -2.4182
  119POPC  C31315934   5.342   1.429   3.859 -0.0288 -0.5147  0.9033
  119POPC  H13X15935   5.336   1.539   3.846 -0.2129 -0.6159  0.0920
  119POPC  H13Y15936   5.437   1.397   3.810  0.1136  0.1091  0.7641
  119POPC  C31415937   5.337   1.399   4.004 -0.7191 -0.1923  0.2619
  119POPC  H14X15938   5.264   1.319   4.025  0.0588 -0.3839  2.5262
  119POPC  H14Y15939   5.320   1.499   4.051  3.1782  1.4118 -1.2442
  119POPC  C31515940   5.477   1.374   4.073 -0.3031 -0.4480  0.4725
  119POPC  H15X15941   5.560   1.442   4.046 -1.0971  0.3500 -0.0050
  119POPC  H15Y15942   5.516   1.272   4.052 -0.5826 -0.5358  0.3718
  119POPC  C31615943   5.477   1.388   4.223  0.2842 -0.5532 -0.6668
  119POPC  H16X15944   5.410   1.311   4.266 -0.6447 -0.6559 -2.2356
  119POPC  H16Y15945   5.441   1.484   4.266  3.2948  0.5513 -0.3589
  119POPC  H16Z15946   5.577   1.366   4.268 -0.5306 -1.1693  0.9043
  120POPC     N15947   6.600   2.652   1.721 -0.6537 -0.3084  0.3605
  120POPC   C1215948   6.588   2.557   1.840  0.9021 -0.1654 -0.2621
  120POPC  H12A15949   6.628   2.461   1.811 -1.0119 -1.1007  0.0310
  120POPC  H12B15950   6.482   2.542   1.853  1.4095 -1.6928  3.0513
  120POPC   C1315951   6.748   2.680   1.684  0.0470  0.0934 -0.1801
  120POPC  H13A15952   6.807   2.747   1.744  1.6843 -1.0658 -0.4126
  120POPC  H13B15953   6.799   2.584   1.685  1.6289  0.9111 -0.0677
  120POPC  H13C15954   6.742   2.725   1.586 -0.7183  0.1875 -0.0992
  120POPC   C1415955   6.531   2.584   1.605  0.3870 -0.7696  0.1216
  120POPC  H14A15956   6.595   2.506   1.566  0.9174 -0.3515  0.1407
  120POPC  H14B15957   6.435   2.548   1.639  0.5363 -0.5972  0.7430
  120POPC  H14C15958   6.530   2.649   1.519  3.0561 -0.0872  0.4977
  120POPC   C1515959   6.544   2.787   1.756 -0.1853  0.5571  0.2678
  120POPC  H15A15960   6.461   2.770   1.823 -0.8507 -1.3179 -0.9324
  120POPC  H15B15961   6.512   2.839   1.666  0.7087 -2.2629 -1.8426
  120POPC  H15C15962   6.617   2.851   1.802  0.9234  0.3053 -1.0650
  120POPC   C1115963   6.656   2.595   1.978 -0.3923  0.0494  0.7001
  120POPC  H11A15964   6.625   2.515   2.049  0.8842  0.2107  1.4784
  120POPC  H11B15965   6.597   2.683   2.012 -0.1710  0.8626 -0.9261
  120POPC     P15966   6.893   2.487   1.981  0.0909 -0.7086  0.2086
  120POPC   O1315967   7.029   2.535   1.961  0.1325  0.0561 -0.0991
  120POPC   O1415968   6.842   2.384   1.890 -0.3019  0.1960  0.1441
  120POPC   O1215969   6.802   2.617   1.978  0.4579  0.5216  0.1222
  120POPC   O1115970   6.881   2.432   2.133 -0.3844 -0.7789  1.2069
  120POPC    C115971   6.882   2.520   2.244  0.0726 -0.3554 -0.2061
  120POPC    HA15972   6.779   2.532   2.283 -0.4913  1.4728 -2.0518
  120POPC    HB15973   6.897   2.625   2.209 -1.1613 -0.3638 -0.8546
  120POPC    C215974   6.986   2.483   2.351  0.4364 -0.3093 -0.5329
  120POPC    HS15975   7.090   2.486   2.310  1.2465  2.4732  1.4088
  120POPC   O2115976   6.937   2.362   2.414 -0.4443  0.4111  0.2327
  120POPC   C2115977   7.036   2.268   2.428 -0.9743  0.2936 -0.2171
  120POPC   O2215978   7.159   2.288   2.413  0.7971 -1.0493  0.5031
  120POPC   C2215979   6.980   2.139   2.479 -0.0509  1.0323  0.2208
  120POPC   H2R15980   6.968   2.072   2.391  1.6508  0.6445  0.2551
  120POPC   H2S15981   6.877   2.162   2.514 -0.1017 -0.2379  0.9480
  120POPC    C315982   6.991   2.587   2.469  0.0786  0.4406 -0.6800
  120POPC    HX15983   6.883   2.605   2.492  0.2420  0.6677 -0.0515
  120POPC    HY15984   7.026   2.682   2.423  0.5098 -0.5391 -2.4563
  120POPC   O3115985   7.054   2.536   2.591 -0.4787  0.0078 -0.0884
  120POPC   C3115986   7.164   2.598   2.624 -0.3439 -1.1062 -0.1108
  120POPC   O3215987   7.214   2.697   2.570  0.3848 -1.1330 -0.1079
  120POPC   C3215988   7.228   2.525   2.747  0.3655 -0.2443  0.1374
  120POPC   H2X15989   7.299   2.445   2.720 -1.8787 -1.6919 -1.8773
  120POPC   H2Y15990   7.136   2.479   2.790  1.2930 -2.0468  0.2676
  120POPC   C2315991   7.066   2.076   2.584 -0.4388 -0.1994  0.1367
  120POPC   H3R15992   7.169   2.055   2.546  0.3539 -0.6045  2.3459
  120POPC   H3S15993   7.019   1.978   2.605 -1.9037  0.5627  0.5214
  120POPC   C2415994   7.068   2.158   2.718 -0.0746  0.3067  1.4457
  120POPC   H4R15995   6.967   2.189   2.752  0.2574  2.6114  0.5115
  120POPC   H4S15996   7.128   2.251   2.707 -1.2060  0.9411  0.4597
  120POPC   C2515997   7.143   2.093   2.832  0.1774 -0.5614 -0.0864
  120POPC   H5R15998   7.251   2.102   2.808  0.3105  0.6039  0.8366
  120POPC   H5S15999   7.127   1.983   2.831  0.2222 -0.5664 -0.3726
  120POPC   C2616000   7.108   2.155   2.967 -0.3156 -0.5714  0.0523
  120POPC   H6R16001   7.005   2.121   2.989 -0.7943  0.7930  0.0562
  120POPC   H6S16002   7.112   2.266   2.966 -1.1058 -0.5016  1.9806
  120POPC   C2716003   7.199   2.095   3.083 -0.6121 -0.5771  0.3367
  120POPC   H7R16004   7.306   2.120   3.066 -0.6864 -1.3814 -1.7165
  120POPC   H7S16005   7.196   1.987   3.058  0.7394 -1.0881  2.1742
  120POPC   C2816006   7.156   2.124   3.222 -0.0569 -0.3881 -0.1236
  120POPC   H8R16007   7.221   2.207   3.259 -0.4890 -0.4341  0.7593
  120POPC   H8S16008   7.189   2.031   3.272  2.8171 -0.1489 -1.3794
  120POPC   C2916009   7.009   2.144   3.234  0.1762  0.1697 -0.2079
  120POPC   H9116010   6.953   2.054   3.204  2.1774 -1.1563 -0.1801
  120POPC  C21016011   6.938   2.245   3.275 -0.3977 -0.7308 -0.4390
  120POPC  H10116012   6.829   2.234   3.284 -0.2983 -0.8006  0.7108
  120POPC  C21116013   6.993   2.378   3.307 -0.0740  0.1725  0.4153
  120POPC  H11R16014   6.930   2.459   3.265  1.1468 -0.0181 -1.9450
  120POPC  H11S16015   7.090   2.403   3.259  1.2215 -0.4267  2.5738
  120POPC  C21216016   7.009   2.401   3.459  0.2322  0.7027  0.1839
  120POPC  H12R16017   7.041   2.301   3.496 -0.0089 -0.0545 -1.5646
  120POPC  H12S16018   6.916   2.435   3.510  0.1102 -1.7510  1.7307
  120POPC  C21316019   7.123   2.497   3.484 -0.1163  0.2897  0.4560
  120POPC  H13R16020   7.118   2.581   3.411  1.7461  0.1117  0.0745
  120POPC  H13S16021   7.218   2.446   3.459 -0.5364  0.2400 -1.1275
  120POPC  C21416022   7.129   2.556   3.624 -0.0037  0.8448 -1.0683
  120POPC  H14R16023   7.145   2.464   3.685 -2.1738 -0.0714 -1.7580
  120POPC  H14S16024   7.023   2.576   3.651  0.0698  3.8474 -2.6416
  120POPC  C21516025   7.224   2.672   3.648  0.2006 -0.1936 -0.2491
  120POPC  H15R16026   7.188   2.765   3.600  0.4768  0.6192  1.0621
  120POPC  H15S16027   7.331   2.646   3.633  0.1951 -0.9174  0.8118
  120POPC  C21616028   7.230   2.709   3.798 -0.5972 -0.2922 -0.0124
  120POPC  H16R16029   7.281   2.622   3.845  0.7376  1.2434  1.5180
  120POPC  H16S16030   7.134   2.719   3.853  0.0482  1.4907  0.8776
  120POPC  C21716031   7.316   2.830   3.827 -0.2865 -0.4969  0.0011
  120POPC  H17R16032   7.262   2.920   3.791  1.6354  0.7164 -0.0081
  120POPC  H17S16033   7.409   2.800   3.775  1.1312 -0.5047  2.4239
  120POPC  C21816034   7.335   2.842   3.980 -0.1703  0.2929  0.4629
  120POPC  H18R16035   7.395   2.756   4.015  1.0101  2.1047  3.3051
  120POPC  H18S16036   7.240   2.857   4.035 -0.4944 -0.9157  0.2628
  120POPC  H18T16037   7.401   2.930   3.998  1.0632 -0.5296  0.0682
  120POPC   C3316038   7.296   2.611   2.866  1.2275 -0.7130 -0.0323
  120POPC   H3X16039   7.227   2.693   2.896  2.5765  0.3867  0.1292
  120POPC   H3Y16040   7.390   2.661   2.835  1.3512  1.0925  2.8775
  120POPC   C3416041   7.318   2.526   2.986 -0.3212  0.2306 -0.2522
  120POPC   H4X16042   7.339   2.420   2.963 -0.8813 -0.0041  0.2767
  120POPC   H4Y16043   7.225   2.525   3.046 -0.0339  2.9545  0.3762
  120POPC   C3516044   7.427   2.572   3.081 -0.4945 -0.8409  0.1674
  120POPC   H5X16045   7.432   2.683   3.081  4.5534 -0.7787  2.3350
  120POPC   H5Y16046   7.527   2.550   3.037  0.2066  1.2694  0.5919
  120POPC   C3616047   7.410   2.514   3.227  0.6318  0.3821 -0.0246
  120POPC   H6X16048   7.381   2.406   3.226 -0.2139  0.5704  1.2743
  120POPC   H6Y16049   7.316   2.557   3.269 -0.2885 -1.4761 -0.0582
  120POPC   C3716050   7.537   2.540   3.305  0.5411  0.1557  0.3414
  120POPC   H7X16051   7.552   2.647   3.280 -1.8669  0.6978  0.9254
  120POPC   H7Y16052   7.620   2.484   3.258 -0.4441  0.6923 -2.2071
  120POPC   C3816053   7.513   2.515   3.451  0.5185 -0.6355 -0.7769
  120POPC   H8X16054   7.483   2.408   3.461 -1.2462 -0.1997 -1.1776
  120POPC   H8Y16055   7.438   2.589   3.484  2.1468  0.2116  1.2667
  120POPC   C3916056   7.629   2.549   3.546 -0.8277 -0.5618  0.0826
  120POPC   H9X16057   7.681   2.641   3.513  0.1438 -1.8312 -2.1315
  120POPC   H9Y16058   7.711   2.476   3.531 -0.9850 -0.5014 -1.1247
  120POPC  C31016059   7.592   2.561   3.693  0.1178 -0.5928  1.2269
  120POPC  H10X16060   7.539   2.469   3.726  0.8460 -0.8993  1.5849
  120POPC  H10Y16061   7.525   2.647   3.709  1.3421  1.0375 -1.7258
  120POPC  C31116062   7.722   2.568   3.779 -0.2764  0.0092 -0.5299
  120POPC  H11X16063   7.802   2.625   3.727 -0.6233 -0.4599 -1.6010
  120POPC  H11Y16064   7.767   2.466   3.780 -3.0558 -1.3198 -1.6711
  120POPC  C31216065   7.684   2.612   3.924 -0.0346  0.2129  1.0710
  120POPC  H12X16066   7.588   2.558   3.939 -1.2170  1.6994 -0.7742
  120POPC  H12Y16067   7.655   2.719   3.931 -1.7002 -0.2602  1.8637
  120POPC  C31316068   7.792   2.563   4.025 -0.1277  0.2231  0.4347
  120POPC  H13X16069   7.772   2.613   4.122 -0.8527 -0.3263  0.5753
  120POPC  H13Y16070   7.888   2.599   3.983  0.1851 -2.1705 -1.1051
  120POPC  C31416071   7.797   2.415   4.044  0.3118  0.3318 -0.8301
  120POPC  H14X16072   7.807   2.364   3.946 -2.9100 -0.6053 -0.7859
  120POPC  H14Y16073   7.708   2.377   4.099  0.5522  1.4077  0.3529
  120POPC  C31516074   7.918   2.378   4.135 -0.1762 -0.2804  0.2126
  120POPC  H15X16075   8.013   2.413   4.090 -1.4382  0.5612 -1.9318
  120POPC  H15Y16076   7.929   2.268   4.138 -0.2831 -0.2732  1.3809
  120POPC  C31616077   7.903   2.413   4.281  0.9173 -0.0905  0.4504
  120POPC  H16X16078   7.808   2.372   4.321  0.9030  0.1901  0.7103
  120POPC  H16Y16079   7.874   2.520   4.290 -0.5427 -0.3334 -0.9216
  120POPC  H16Z16080   7.996   2.392   4.338 -0.4446  0.7777  3.1908
  121POPC     N16081   5.393   6.085   2.035 -0.2508  0.1931  0.0558
  121POPC   C1216082   5.486   6.196   2.006  0.0754 -0.2211  0.3737
  121POPC  H12A16083   5.471   6.281   2.071 -0.8267  0.4460 -0.6825
  121POPC  H12B16084   5.461   6.229   1.907 -2.0038 -1.6853  0.3415
  121POPC   C1316085   5.422   5.969   1.947  0.0738 -0.5562 -0.6211
  121POPC  H13A16086   5.410   6.003   1.845  0.0424  0.2822 -0.3498
  121POPC  H13B16087   5.524   5.939   1.961  0.6555  1.9348  1.1357
  121POPC  H13C16088   5.362   5.884   1.974 -0.9932  0.4807  0.4124
  121POPC   C1416089   5.398   6.036   2.176  0.9640 -0.3855 -0.2976
  121POPC  H14A16090   5.357   5.937   2.191  0.4929 -0.0018  1.1123
  121POPC  H14B16091   5.501   6.023   2.208  0.4577 -0.3734  1.4583
  121POPC  H14C16092   5.359   6.110   2.243  0.6183 -0.0546 -0.8600
  121POPC   C1516093   5.247   6.121   2.004  0.3601  0.0890 -0.4137
  121POPC  H15A16094   5.186   6.034   2.023  0.4753 -0.7325 -3.3100
  121POPC  H15B16095   5.228   6.129   1.898 -1.8264  0.2534 -0.0516
  121POPC  H15C16096   5.202   6.200   2.063  0.0444 -0.6766  0.3892
  121POPC   C1116097   5.638   6.172   2.009 -0.9484  0.0881  0.4113
  121POPC  H11A16098   5.683   6.272   1.997 -0.5498 -0.2423 -0.9798
  121POPC  H11B16099   5.669   6.107   1.924 -0.5655  0.5820  0.1704
  121POPC     P16100   5.716   6.203   2.254  0.0440  0.0101 -0.1590
  121POPC   O1316101   5.844   6.267   2.231 -0.1190  0.0662  0.0605
  121POPC   O1416102   5.711   6.114   2.366  0.0011 -0.0534 -0.1969
  121POPC   O1216103   5.678   6.116   2.131 -0.1364  0.1474 -0.1938
  121POPC   O1116104   5.601   6.310   2.255  0.3381  1.0454  0.3324
  121POPC    C116105   5.504   6.327   2.359  0.1090  0.5611 -0.5624
  121POPC    HA16106   5.472   6.227   2.394 -0.9547  1.2507  0.5016
  121POPC    HB16107   5.426   6.384   2.305  0.4205  1.0314 -0.5211
  121POPC    C216108   5.557   6.421   2.475  0.2804 -0.6471  0.7691
  121POPC    HS16109   5.636   6.363   2.526 -0.3341 -0.4775  1.9557
  121POPC   O2116110   5.455   6.456   2.574  0.1304 -0.1266  0.2852
  121POPC   C2116111   5.422   6.354   2.647 -0.1738 -0.0675 -0.5912
  121POPC   O2216112   5.483   6.244   2.651  0.3050 -0.3807  0.0435
  121POPC   C2216113   5.307   6.398   2.734 -0.1378  0.4901  0.0434
  121POPC   H2R16114   5.212   6.366   2.685  0.0331  0.0134  0.0158
  121POPC   H2S16115   5.321   6.504   2.762  1.0080  0.2960  0.2266
  121POPC    C316116   5.613   6.554   2.418 -0.1452 -0.0071  0.3149
  121POPC    HX16117   5.530   6.585   2.351  0.5741 -0.1295 -0.6475
  121POPC    HY16118   5.702   6.528   2.358  1.3855 -0.5828  2.7074
  121POPC   O3116119   5.646   6.651   2.523  0.1178  0.2598  0.3009
  121POPC   C3116120   5.764   6.639   2.586 -0.7070 -0.0263 -0.1851
  121POPC   O3216121   5.840   6.552   2.553  0.2569  0.3206 -0.5830
  121POPC   C3216122   5.799   6.745   2.696  0.2427  0.0068  0.6423
  121POPC   H2X16123   5.869   6.808   2.637 -0.5911  1.9049  1.5916
  121POPC   H2Y16124   5.847   6.684   2.775 -0.6473 -2.1976 -0.3996
  121POPC   C2316125   5.314   6.316   2.869  0.0190  0.3098 -0.2776
  121POPC   H3R16126   5.404   6.336   2.931 -0.1701  1.4160 -0.3416
  121POPC   H3S16127   5.326   6.208   2.845 -0.1654  0.1834  0.1876
  121POPC   C2416128   5.189   6.309   2.962 -0.2122 -0.5817 -0.3672
  121POPC   H4R16129   5.096   6.285   2.906 -0.6369 -0.0833  0.1144
  121POPC   H4S16130   5.177   6.409   3.009 -0.2232 -2.4506  4.0427
  121POPC   C2516131   5.198   6.222   3.088 -0.4044  0.0941  0.5118
  121POPC   H5R16132   5.296   6.243   3.135  0.1894 -2.6855  0.6672
  121POPC   H5S16133   5.208   6.119   3.046 -1.0918  0.4699 -0.6128
  121POPC   C2616134   5.081   6.223   3.194  0.2263 -1.0490  0.2729
  121POPC   H6R16135   5.024   6.318   3.194  3.8008  1.3026  1.1638
  121POPC   H6S16136   5.126   6.188   3.289  1.1585  0.0999  0.2755
  121POPC   C2716137   4.985   6.102   3.158 -0.1274  0.4677  0.7536
  121POPC   H7R16138   5.045   6.009   3.154 -1.2547 -0.2286 -0.6531
  121POPC   H7S16139   4.949   6.110   3.053  0.6591  1.0714  0.5144
  121POPC   C2816140   4.876   6.086   3.257 -0.2156  0.0555 -0.8461
  121POPC   H8R16141   4.906   6.082   3.364 -0.7762 -0.0498 -0.6885
  121POPC   H8S16142   4.841   5.982   3.236  1.9615 -0.6941 -0.9649
  121POPC   C2916143   4.767   6.190   3.255 -0.3383 -0.0618  0.2519
  121POPC   H9116144   4.791   6.285   3.305  1.2791  0.2252 -0.9792
  121POPC  C21016145   4.658   6.178   3.182  0.2007  0.3741 -0.2788
  121POPC  H10116146   4.577   6.252   3.189 -0.5058 -0.4618  0.8005
  121POPC  C21116147   4.625   6.060   3.095  0.3641  0.7738  0.7900
  121POPC  H11R16148   4.712   5.998   3.066  0.3316  0.3951  1.4596
  121POPC  H11S16149   4.585   6.101   3.000  1.3807  0.1219  0.0621
  121POPC  C21216150   4.519   5.972   3.167 -0.2269  0.2438 -0.2071
  121POPC  H12R16151   4.466   5.917   3.085  1.1411  0.2204 -1.1143
  121POPC  H12S16152   4.439   6.035   3.212 -0.7632 -1.0012  0.6518
  121POPC  C21316153   4.571   5.860   3.261 -0.5771  0.1490 -0.2850
  121POPC  H13R16154   4.628   5.903   3.346  1.2203 -3.1636  0.3669
  121POPC  H13S16155   4.651   5.808   3.203  0.2918 -0.7701  1.6459
  121POPC  C21416156   4.470   5.755   3.306  0.1216 -0.1363 -0.0356
  121POPC  H14R16157   4.508   5.655   3.338 -0.3560 -0.5617 -0.7717
  121POPC  H14S16158   4.404   5.741   3.219 -1.7043  3.1744  0.6361
  121POPC  C21516159   4.401   5.808   3.430  0.4476 -0.3213 -0.1311
  121POPC  H15R16160   4.302   5.764   3.455 -0.0698  0.3224 -0.9832
  121POPC  H15S16161   4.385   5.918   3.430  0.9587 -0.2409  0.5146
  121POPC  C21616162   4.493   5.786   3.553  0.1003  0.2578  0.2484
  121POPC  H16R16163   4.600   5.803   3.529  0.1372 -1.5633 -1.0465
  121POPC  H16S16164   4.472   5.682   3.587 -0.0414  0.4843  0.8716
  121POPC  C21716165   4.453   5.880   3.666  0.0480  0.5052 -1.0041
  121POPC  H17R16166   4.345   5.888   3.691  0.5012  1.8095  0.7762
  121POPC  H17S16167   4.484   5.984   3.641  0.9229  0.6559  0.5928
  121POPC  C21816168   4.526   5.845   3.800  0.1965  0.4868 -0.1326
  121POPC  H18R16169   4.634   5.825   3.785 -0.1966 -2.0938  0.0550
  121POPC  H18S16170   4.493   5.749   3.844  0.8773  1.1607  1.9692
  121POPC  H18T16171   4.505   5.924   3.875 -0.1167 -0.1094  0.4094
  121POPC   C3316172   5.681   6.835   2.743 -0.0951  0.3624 -0.2499
  121POPC   H3X16173   5.650   6.889   2.651  0.6135  3.9642  1.4762
  121POPC   H3Y16174   5.717   6.917   2.809 -1.4816  2.1380 -1.5854
  121POPC   C3416175   5.562   6.762   2.798 -0.2537  0.6304  0.4408
  121POPC   H4X16176   5.516   6.691   2.726 -1.9174 -0.4045  2.4377
  121POPC   H4Y16177   5.481   6.835   2.818 -0.0900  1.1861 -0.8032
  121POPC   C3516178   5.596   6.697   2.927  0.0746  1.3970 -0.4041
  121POPC   H5X16179   5.702   6.700   2.960 -0.3807  1.8026  1.0997
  121POPC   H5Y16180   5.566   6.590   2.927  2.1005  0.7881 -0.7936
  121POPC   C3616181   5.508   6.748   3.048 -0.0098  0.5540 -0.0155
  121POPC   H6X16182   5.407   6.759   3.003  0.0239 -0.4103 -0.3304
  121POPC   H6Y16183   5.546   6.845   3.086  0.8158  0.7686 -1.3080
  121POPC   C3716184   5.495   6.643   3.159 -0.4461  0.6031  0.2326
  121POPC   H7X16185   5.581   6.630   3.227 -0.3915 -0.5506 -0.0370
  121POPC   H7Y16186   5.471   6.542   3.119  0.4120 -0.6593  2.7192
  121POPC   C3816187   5.382   6.681   3.248  0.0574 -0.5665 -0.5690
  121POPC   H8X16188   5.295   6.709   3.184  0.4204 -0.0676 -0.8541
  121POPC   H8Y16189   5.406   6.769   3.310  0.7269 -2.0910  1.4507
  121POPC   C3916190   5.316   6.577   3.330  0.3257 -0.2766 -0.0789
  121POPC   H9X16191   5.373   6.548   3.421  1.5990 -1.8236 -1.3200
  121POPC   H9Y16192   5.286   6.490   3.268  1.1854 -0.3972 -0.3391
  121POPC  C31016193   5.182   6.639   3.380 -0.4170  0.5075  0.0907
  121POPC  H10X16194   5.128   6.672   3.289  1.1329  2.3140 -0.2374
  121POPC  H10Y16195   5.216   6.715   3.454 -0.8579  0.0265  0.7995
  121POPC  C31116196   5.089   6.538   3.459  0.1608 -0.0422  0.8778
  121POPC  H11X16197   5.149   6.495   3.542  1.9131 -0.2776 -0.4390
  121POPC  H11Y16198   5.056   6.459   3.388 -2.1519  0.9329  0.7709
  121POPC  C31216199   4.976   6.614   3.527 -0.5912  0.4158 -0.1255
  121POPC  H12X16200   4.911   6.647   3.442  0.7893  0.0636 -1.3601
  121POPC  H12Y16201   5.004   6.711   3.574  1.4255  0.2579 -0.9197
  121POPC  C31316202   4.901   6.526   3.626 -0.0403 -0.2961 -0.6452
  121POPC  H13X16203   4.823   6.598   3.659 -0.5514 -1.1132 -0.0329
  121POPC  H13Y16204   4.970   6.489   3.706 -0.4180 -0.0206 -0.1874
  121POPC  C31416205   4.824   6.423   3.546 -0.2923 -0.1892 -0.5903
  121POPC  H14X16206   4.891   6.335   3.533 -0.7875 -0.8755  1.1128
  121POPC  H14Y16207   4.798   6.465   3.447 -0.4781  1.8314  0.2600
  121POPC  C31516208   4.690   6.382   3.601  0.6942 -0.5565 -0.3387
  121POPC  H15X16209   4.639   6.308   3.535 -0.8009 -0.2047  0.3867
  121POPC  H15Y16210   4.622   6.469   3.593 -0.8043 -1.4802  1.5050
  121POPC  C31616211   4.699   6.328   3.746  0.6027  0.1118  0.8858
  121POPC  H16X16212   4.771   6.243   3.755 -1.5256 -1.6039  3.0260
  121POPC  H16Y16213   4.599   6.283   3.758  0.2862  0.0699 -1.5817
  121POPC  H16Z16214   4.728   6.395   3.831  0.5148  1.8829 -0.4278
  122POPC     N16215   3.886   1.823   1.529 -0.3021 -0.5003 -0.2008
  122POPC   C1216216   3.823   1.835   1.659 -0.1408 -0.4979 -0.4962
  122POPC  H12A16217   3.815   1.741   1.712 -0.4607 -0.0415  0.2878
  122POPC  H12B16218   3.719   1.861   1.645 -0.2873  0.0019  1.2685
  122POPC   C1316219   3.786   1.735   1.449  0.2396  0.0295 -0.4379
  122POPC  H13A16220   3.819   1.733   1.346  1.7167  4.2494 -0.2612
  122POPC  H13B16221   3.777   1.634   1.486  0.0369 -0.8166 -2.6215
  122POPC  H13C16222   3.687   1.780   1.453 -0.2045 -0.6768 -2.2996
  122POPC   C1416223   3.909   1.953   1.454 -0.0550 -0.1567 -0.0200
  122POPC  H14A16224   3.822   2.015   1.441 -1.4376 -1.9780  0.0531
  122POPC  H14B16225   3.989   2.009   1.500 -0.3239  0.6434 -0.5137
  122POPC  H14C16226   3.946   1.928   1.356 -1.0282 -0.2126 -0.3802
  122POPC   C1516227   4.016   1.746   1.538  0.0225  0.3633 -0.4032
  122POPC  H15A16228   4.091   1.808   1.585  1.9161 -2.1641  0.1678
  122POPC  H15B16229   4.048   1.712   1.441  1.0472 -0.9364  0.3558
  122POPC  H15C16230   4.009   1.655   1.596 -0.8556  0.2164 -0.7248
  122POPC   C1116231   3.892   1.936   1.762 -0.4154 -0.8703 -0.2170
  122POPC  H11A16232   3.825   1.946   1.850  0.8010  2.3148  0.5017
  122POPC  H11B16233   3.888   2.035   1.710  0.3123  0.2366  1.7273
  122POPC     P16234   4.037   1.772   1.894 -0.0929  0.1385  0.2969
  122POPC   O1316235   4.177   1.748   1.931  0.0291  0.5020 -0.1519
  122POPC   O1416236   3.979   1.657   1.826 -0.1981  0.5894  0.8339
  122POPC   O1216237   4.023   1.902   1.811  0.2210  0.4439 -0.3440
  122POPC   O1116238   3.960   1.793   2.034  0.1299  0.1384  0.5396
  122POPC    C116239   4.014   1.872   2.137 -1.0042 -0.2574  0.4472
  122POPC    HA16240   3.942   1.945   2.178 -1.1538 -1.9420  3.4797
  122POPC    HB16241   4.111   1.921   2.113 -1.4187  1.7200  2.4670
  122POPC    C216242   4.039   1.773   2.262  0.1709  0.4596 -0.4186
  122POPC    HS16243   4.107   1.688   2.238  0.3595  0.1345  1.2012
  122POPC   O2116244   3.910   1.728   2.295  0.3410 -0.2156  0.0049
  122POPC   C2116245   3.913   1.608   2.355  0.6768  0.3269 -0.7912
  122POPC   O2216246   4.011   1.545   2.384  0.1337  0.1510  0.6090
  122POPC   C2216247   3.764   1.583   2.389  0.2431  0.3869 -0.6183
  122POPC   H2R16248   3.742   1.474   2.393 -1.2055  0.6742  0.2207
  122POPC   H2S16249   3.691   1.641   2.328 -0.0320  0.0539 -0.6100
  122POPC    C316250   4.093   1.844   2.380 -0.1737 -0.1118 -0.0166
  122POPC    HX16251   4.006   1.903   2.415 -1.7891 -3.1214  1.5240
  122POPC    HY16252   4.173   1.917   2.353 -1.2302  1.0224 -0.1598
  122POPC   O3116253   4.120   1.766   2.497  0.2262  0.2582  0.0737
  122POPC   C3116254   4.238   1.713   2.493  0.1421 -0.1294  0.3597
  122POPC   O3216255   4.328   1.747   2.419  0.2608 -0.4023 -0.0609
  122POPC   C3216256   4.255   1.612   2.601 -0.3278 -0.1058 -0.3073
  122POPC   H2X16257   4.325   1.539   2.556  0.7496 -1.6001  3.4057
  122POPC   H2Y16258   4.159   1.563   2.631 -0.2910  1.2147  2.2647
  122POPC   C2316259   3.736   1.635   2.533  0.7707  0.5264 -0.7768
  122POPC   H3R16260   3.724   1.744   2.522  1.5448  0.9060  1.5613
  122POPC   H3S16261   3.816   1.605   2.605 -1.6147  1.3409  2.4392
  122POPC   C2416262   3.613   1.566   2.589 -0.3068  0.2068 -0.1168
  122POPC   H4R16263   3.613   1.455   2.585  0.0698  0.1058  1.7455
  122POPC   H4S16264   3.526   1.609   2.535  1.4848  2.4556 -1.3908
  122POPC   C2516265   3.615   1.590   2.738 -0.0366  0.1889 -0.2124
  122POPC   H5R16266   3.606   1.696   2.771 -0.2344 -0.3587  1.5888
  122POPC   H5S16267   3.709   1.550   2.783 -0.0849  1.1051  0.7480
  122POPC   C2616268   3.500   1.515   2.815  0.0079 -0.1586 -0.5551
  122POPC   H6R16269   3.495   1.415   2.766 -0.6238 -0.3496 -0.1131
  122POPC   H6S16270   3.408   1.574   2.793 -1.0572 -1.0499  1.3064
  122POPC   C2716271   3.520   1.502   2.967 -0.0380 -0.5307 -0.0247
  122POPC   H7R16272   3.542   1.603   3.008  0.4611 -0.3346 -0.7619
  122POPC   H7S16273   3.617   1.448   2.978 -0.6490 -1.7648 -0.4976
  122POPC   C2816274   3.398   1.437   3.035  0.6890  0.8119  0.1329
  122POPC   H8R16275   3.386   1.477   3.138  1.5836 -1.3666  1.1554
  122POPC   H8S16276   3.417   1.327   3.034 -1.1612  0.4690 -1.2012
  122POPC   C2916277   3.266   1.449   2.954 -0.0881 -0.0346 -0.3287
  122POPC   H9116278   3.271   1.404   2.853  1.0832 -0.4206 -0.1188
  122POPC  C21016279   3.157   1.516   2.984  0.9368 -0.4487 -0.2180
  122POPC  H10116280   3.062   1.503   2.929  1.2419 -0.0107 -0.8594
  122POPC  C21116281   3.134   1.613   3.091  0.2819 -0.4272 -0.1338
  122POPC  H11R16282   3.093   1.705   3.044 -1.0352 -1.4245 -1.0129
  122POPC  H11S16283   3.228   1.647   3.139  1.3577 -2.2770 -0.8419
  122POPC  C21216284   3.031   1.564   3.194 -0.6715 -0.5264  0.9778
  122POPC  H12R16285   3.064   1.466   3.236  0.0204 -2.0671 -2.7618
  122POPC  H12S16286   2.938   1.552   3.135 -0.8843  1.4969  0.8189
  122POPC  C21316287   3.015   1.667   3.309  0.2128  0.5346  0.7912
  122POPC  H13R16288   2.997   1.764   3.259 -2.0126 -0.6407 -0.8875
  122POPC  H13S16289   3.114   1.693   3.352  0.3880  1.4963 -0.1597
  122POPC  C21416290   2.913   1.634   3.427  0.2577 -0.6959 -0.9037
  122POPC  H14R16291   2.924   1.527   3.456  1.8168 -0.9744 -2.3688
  122POPC  H14S16292   2.811   1.648   3.385  0.2747  1.6882 -0.2997
  122POPC  C21516293   2.901   1.732   3.545  0.4690 -0.3350 -0.3788
  122POPC  H15R16294   2.860   1.828   3.506  1.4042  1.0792  1.9347
  122POPC  H15S16295   2.998   1.729   3.598  0.5655 -0.6009 -0.5678
  122POPC  C21616296   2.804   1.676   3.649  0.0149  0.1262 -0.4914
  122POPC  H16R16297   2.818   1.737   3.741  0.7578 -0.6518 -0.0688
  122POPC  H16S16298   2.828   1.571   3.676  1.2278  0.4903 -0.0856
  122POPC  C21716299   2.655   1.691   3.623  0.0871  0.0016 -0.3215
  122POPC  H17R16300   2.624   1.597   3.572 -1.9990 -0.2328  1.2676
  122POPC  H17S16301   2.646   1.767   3.543 -3.3131 -0.0943 -0.1823
  122POPC  C21816302   2.565   1.704   3.744  0.0877  0.1559 -0.8865
  122POPC  H18R16303   2.460   1.724   3.712 -0.6420 -1.7868  0.1093
  122POPC  H18S16304   2.603   1.785   3.809  0.6794  0.2798 -1.3810
  122POPC  H18T16305   2.571   1.609   3.803  2.1862  1.3862  1.0506
  122POPC   C3316306   4.328   1.669   2.728  0.5592 -0.0013  0.2268
  122POPC   H3X16307   4.259   1.741   2.778  0.2048 -1.3371  1.7548
  122POPC   H3Y16308   4.418   1.725   2.695 -0.9860  2.9887  0.7011
  122POPC   C3416309   4.385   1.567   2.837  0.0411 -0.1792 -0.1333
  122POPC   H4X16310   4.300   1.529   2.898  1.0518 -1.8734  0.2627
  122POPC   H4Y16311   4.445   1.626   2.910 -0.4125 -2.4440  2.2352
  122POPC   C3516312   4.477   1.453   2.779  0.8287 -0.1590 -0.4158
  122POPC   H5X16313   4.572   1.495   2.739  1.8518 -1.3615  0.6480
  122POPC   H5Y16314   4.417   1.410   2.697 -0.4206  0.6114  0.0660
  122POPC   C3616315   4.501   1.349   2.890 -0.5574 -0.3612  0.3869
  122POPC   H6X16316   4.404   1.302   2.917  0.2692 -2.3327  0.1206
  122POPC   H6Y16317   4.543   1.394   2.982 -0.7229  0.3524  0.1240
  122POPC   C3716318   4.603   1.243   2.845 -0.1386  0.8616 -0.3314
  122POPC   H7X16319   4.701   1.286   2.816  0.8052  0.3085  1.8367
  122POPC   H7Y16320   4.567   1.204   2.748 -1.1722 -0.4146  0.5252
  122POPC   C3816321   4.612   1.126   2.940  0.2152  0.0424 -0.2704
  122POPC   H8X16322   4.511   1.122   2.985 -0.0159 -1.1945 -0.8797
  122POPC   H8Y16323   4.700   1.147   3.004  0.0215 -0.0395  0.0232
  122POPC   C3916324   4.659   0.995   2.878  0.3866 -0.1417 -0.1450
  122POPC   H9X16325   4.762   1.014   2.841 -0.1746  3.0420 -0.3403
  122POPC   H9Y16326   4.597   0.971   2.789  0.1638  1.6355 -0.4957
  122POPC  C31016327   4.642   0.880   2.989 -0.0599 -0.0592 -0.5103
  122POPC  H10X16328   4.536   0.885   3.023 -0.2080 -0.8258 -0.8349
  122POPC  H10Y16329   4.713   0.898   3.073 -0.3660  0.8281 -0.4368
  122POPC  C31116330   4.666   0.743   2.926 -0.3013  0.1729 -0.0852
  122POPC  H11X16331   4.775   0.721   2.921 -1.0830 -4.6590 -0.1154
  122POPC  H11Y16332   4.644   0.737   2.818  0.4331 -1.3851 -0.1782
  122POPC  C31216333   4.588   0.638   3.002  0.4094  0.0329  0.3070
  122POPC  H12X16334   4.639   0.542   2.978 -0.7124 -0.6359  0.5245
  122POPC  H12Y16335   4.483   0.631   2.967  0.5582  1.1935 -0.4114
  122POPC  C31316336   4.595   0.637   3.157  0.2320  0.4600 -0.2096
  122POPC  H13X16337   4.535   0.725   3.189 -1.0264 -1.0347  1.7537
  122POPC  H13Y16338   4.702   0.647   3.186 -0.1118  0.0560  1.2364
  122POPC  C31416339   4.522   0.509   3.209 -0.3627  0.1376  0.3823
  122POPC  H14X16340   4.577   0.423   3.166  1.5613  0.5376  1.9021
  122POPC  H14Y16341   4.425   0.518   3.155 -0.2173  1.5868  0.3358
  122POPC  C31516342   4.506   0.490   3.362 -0.6358 -0.4441  0.4469
  122POPC  H15X16343   4.461   0.581   3.407  1.5046  0.0080  1.8208
  122POPC  H15Y16344   4.612   0.478   3.394 -0.6991  0.1409  0.8824
  122POPC  C31616345   4.430   0.357   3.397 -0.2521 -0.7152 -0.1203
  122POPC  H16X16346   4.324   0.370   3.366 -0.6085 -0.3902  1.1909
  122POPC  H16Y16347   4.442   0.335   3.505  1.5262 -0.3886 -0.2096
  122POPC  H16Z16348   4.470   0.272   3.336  2.7738  0.7672 -0.4001
  123POPC     N16349   4.626   3.764   1.599  0.2770 -1.1571  0.5296
  123POPC   C1216350   4.637   3.855   1.724 -0.4190 -0.3772  0.9732
  123POPC  H12A16351   4.554   3.924   1.724  0.5656  0.8207  1.4821
  123POPC  H12B16352   4.724   3.918   1.715  0.2009 -1.1750  1.2666
  123POPC   C1316353   4.505   3.679   1.614 -0.0208  0.3524  0.1889
  123POPC  H13A16354   4.467   3.641   1.520  0.4302 -0.1874  0.2189
  123POPC  H13B16355   4.525   3.603   1.688  1.5878  0.2505 -0.3001
  123POPC  H13C16356   4.420   3.735   1.649 -0.6776 -1.2837  1.3031
  123POPC   C1416357   4.592   3.847   1.476  0.3232 -0.0023  0.1510
  123POPC  H14A16358   4.490   3.884   1.470  0.6527  1.2107  1.3502
  123POPC  H14B16359   4.660   3.931   1.483  0.4296 -0.0403 -0.4398
  123POPC  H14C16360   4.615   3.794   1.385  1.8619  0.6535  0.1312
  123POPC   C1516361   4.745   3.680   1.584 -0.5208 -0.8486 -0.3254
  123POPC  H15A16362   4.726   3.602   1.512  1.0617 -1.4446 -0.1502
  123POPC  H15B16363   4.781   3.634   1.675 -0.5880 -1.7231 -0.7311
  123POPC  H15C16364   4.824   3.741   1.541 -0.1142  1.0211  2.7600
  123POPC   C1116365   4.645   3.799   1.864 -0.4787 -0.5751 -0.8936
  123POPC  H11A16366   4.551   3.742   1.882 -0.3226 -0.1031  1.9101
  123POPC  H11B16367   4.640   3.885   1.935  0.1862 -0.4601 -0.9759
  123POPC     P16368   4.751   3.610   2.003 -0.1491  0.4056 -0.0607
  123POPC   O1316369   4.890   3.571   2.048  0.5848 -0.1519  0.2757
  123POPC   O1416370   4.663   3.506   1.944  0.2584 -0.0517  0.0208
  123POPC   O1216371   4.762   3.724   1.896 -0.0920 -0.9085 -0.5443
  123POPC   O1116372   4.675   3.683   2.121 -0.5780  0.1525 -0.1626
  123POPC    C116373   4.682   3.630   2.260 -0.1046  0.0177 -0.2094
  123POPC    HA16374   4.600   3.684   2.313  0.1965  0.5323 -0.2569
  123POPC    HB16375   4.780   3.655   2.306  0.0139 -1.2461  0.2468
  123POPC    C216376   4.642   3.481   2.281  0.1026 -0.0292  0.2287
  123POPC    HS16377   4.677   3.412   2.202  0.9618 -0.3870  0.9114
  123POPC   O2116378   4.498   3.475   2.282 -0.0437  0.3383 -0.7594
  123POPC   C2116379   4.433   3.364   2.265 -0.3571  0.2681 -0.8954
  123POPC   O2216380   4.478   3.252   2.229 -0.6029 -0.3620 -0.1207
  123POPC   C2216381   4.283   3.389   2.297 -0.2106  0.1646  0.3118
  123POPC   H2R16382   4.244   3.419   2.198  2.7788  0.4962 -0.8504
  123POPC   H2S16383   4.273   3.474   2.368  1.0119 -0.5944  1.4397
  123POPC    C316384   4.704   3.422   2.412  0.3314 -0.3234  0.2457
  123POPC    HX16385   4.673   3.491   2.493  1.2745  1.0205 -0.4982
  123POPC    HY16386   4.814   3.436   2.400 -0.1941  2.6565 -2.3069
  123POPC   O3116387   4.672   3.286   2.446  1.0023 -0.3569  0.6740
  123POPC   C3116388   4.718   3.194   2.364  0.8802  0.2360  0.3159
  123POPC   O3216389   4.798   3.215   2.274 -0.3213  0.2852 -0.6981
  123POPC   C3216390   4.662   3.060   2.399 -0.0051  0.5772  0.1572
  123POPC   H2X16391   4.712   2.983   2.336 -0.9335  0.5206 -0.5407
  123POPC   H2Y16392   4.554   3.050   2.374 -0.6051 -1.3388  2.9516
  123POPC   C2316393   4.209   3.272   2.353 -0.0650 -0.3110  0.7301
  123POPC   H3R16394   4.232   3.172   2.311  0.5956  0.7233 -1.5246
  123POPC   H3S16395   4.101   3.287   2.336  0.1616  2.1375  1.0609
  123POPC   C2416396   4.206   3.272   2.501  0.5099 -0.2159  0.9124
  123POPC   H4R16397   4.131   3.200   2.541 -0.4236  0.1053 -0.1708
  123POPC   H4S16398   4.160   3.368   2.533  1.1290  0.2363  0.4486
  123POPC   C2516399   4.340   3.262   2.576 -0.4487 -0.2543 -0.3750
  123POPC   H5R16400   4.378   3.355   2.624  3.7414 -2.0509  0.2591
  123POPC   H5S16401   4.415   3.230   2.501 -1.6267 -0.2324 -1.5924
  123POPC   C2616402   4.350   3.157   2.691 -0.5826  0.2886 -0.3458
  123POPC   H6R16403   4.447   3.171   2.742 -0.6650 -0.5973  0.0801
  123POPC   H6S16404   4.365   3.052   2.656  4.1360  0.7457 -0.2756
  123POPC   C2716405   4.243   3.177   2.802 -0.5330  0.4699 -0.0163
  123POPC   H7R16406   4.143   3.147   2.764 -0.4967  0.3589 -0.0239
  123POPC   H7S16407   4.237   3.286   2.824  1.0719  0.5851 -0.0143
  123POPC   C2816408   4.284   3.116   2.937 -0.4268  0.5762  0.1476
  123POPC   H8R16409   4.220   3.166   3.013 -1.2839  1.3987 -1.0638
  123POPC   H8S16410   4.387   3.149   2.960  0.1042 -1.6653  1.1831
  123POPC   C2916411   4.270   2.963   2.944 -0.4724 -0.6018 -0.7047
  123POPC   H9116412   4.333   2.910   2.871  3.2255 -0.2439  1.9368
  123POPC  C21016413   4.180   2.891   3.018  0.1658  0.1994 -0.2887
  123POPC  H10116414   4.174   2.782   3.005  0.7776 -0.0543  1.3600
  123POPC  C21116415   4.101   2.937   3.133 -0.2843 -0.6464  0.4221
  123POPC  H11R16416   3.998   2.950   3.093 -0.4225 -2.5539  0.0460
  123POPC  H11S16417   4.126   3.037   3.174 -0.5397 -1.7905  3.6337
  123POPC  C21216418   4.105   2.832   3.241 -0.1997  0.2882  0.4996
  123POPC  H12R16419   4.056   2.739   3.205  0.1722 -0.7504  2.5270
  123POPC  H12S16420   4.030   2.860   3.317  0.0176  2.2148  0.0410
  123POPC  C21316421   4.249   2.802   3.299 -0.4198  0.2797 -0.3036
  123POPC  H13R16422   4.316   2.887   3.274 -0.0730 -0.0042 -0.3461
  123POPC  H13S16423   4.284   2.718   3.236  0.2530  1.2966 -1.3329
  123POPC  C21416424   4.259   2.770   3.450  0.0158 -0.0547  0.0363
  123POPC  H14R16425   4.194   2.684   3.476  0.7489 -0.0990  1.9025
  123POPC  H14S16426   4.216   2.855   3.508 -0.2770  0.4716 -0.9388
  123POPC  C21516427   4.398   2.746   3.500  0.4708  0.1618 -0.0418
  123POPC  H15R16428   4.444   2.847   3.497 -2.8038  1.7968 -2.3274
  123POPC  H15S16429   4.448   2.676   3.431 -2.4074 -0.1021 -2.0206
  123POPC  C21616430   4.393   2.697   3.642  0.1738 -0.0097  0.1451
  123POPC  H16R16431   4.339   2.600   3.635 -0.0311  0.1753 -1.1204
  123POPC  H16S16432   4.325   2.765   3.697 -0.0773 -1.0975  1.2139
  123POPC  C21716433   4.525   2.693   3.708 -0.8162 -0.2302 -0.6425
  123POPC  H17R16434   4.563   2.795   3.687 -0.6363 -0.1820 -0.0843
  123POPC  H17S16435   4.596   2.626   3.654  0.1989  2.6720 -3.2149
  123POPC  C21816436   4.521   2.650   3.851 -0.3534  0.2871 -0.3821
  123POPC  H18R16437   4.626   2.661   3.886 -0.5245 -1.3412  0.7245
  123POPC  H18S16438   4.494   2.544   3.864  0.5567  0.2293  1.1351
  123POPC  H18T16439   4.450   2.710   3.911 -1.8351 -2.3555  0.6415
  123POPC   C3316440   4.680   3.023   2.553  0.0399 -0.3764  0.6748
  123POPC   H3X16441   4.627   3.097   2.616 -0.5185 -0.3117  0.1330
  123POPC   H3Y16442   4.788   3.026   2.582  0.0559 -1.2476  0.7189
  123POPC   C3416443   4.632   2.888   2.594  0.4954  0.5322 -0.1716
  123POPC   H4X16444   4.678   2.796   2.552 -0.8431 -0.4445  0.4309
  123POPC   H4Y16445   4.526   2.876   2.563  0.4403 -2.0388  0.7630
  123POPC   C3516446   4.642   2.869   2.743 -0.2630  0.7602  0.6341
  123POPC   H5X16447   4.609   2.961   2.797  1.9406  0.6821  2.2505
  123POPC   H5Y16448   4.752   2.855   2.749 -0.2891  0.2712 -0.0030
  123POPC   C3616449   4.573   2.753   2.805 -0.5307  0.3709 -0.3893
  123POPC   H6X16450   4.605   2.656   2.761  1.4752  0.3344  1.0552
  123POPC   H6Y16451   4.462   2.759   2.796 -0.5113  0.0103 -0.9472
  123POPC   C3716452   4.602   2.743   2.963 -0.2451 -0.2565  0.8116
  123POPC   H7X16453   4.576   2.839   3.013  1.6571 -0.5519  2.5381
  123POPC   H7Y16454   4.713   2.740   2.971 -0.2567 -0.1522  1.0365
  123POPC   C3816455   4.538   2.629   3.039  0.2555  0.4943 -0.2767
  123POPC   H8X16456   4.427   2.633   3.039  0.2715  1.8139  1.5654
  123POPC   H8Y16457   4.573   2.621   3.144 -1.4245  1.8599  0.4144
  123POPC   C3916458   4.567   2.488   2.980 -0.3384 -0.0095  0.1138
  123POPC   H9X16459   4.652   2.508   2.912 -1.2467  0.9314 -0.7686
  123POPC   H9Y16460   4.483   2.460   2.912  0.1975  0.0141 -0.5598
  123POPC  C31016461   4.601   2.383   3.087 -0.3481 -0.8228  0.2682
  123POPC  H10X16462   4.685   2.432   3.141 -0.9889  1.7814 -0.9284
  123POPC  H10Y16463   4.624   2.280   3.053 -0.7878 -0.8930  0.1729
  123POPC  C31116464   4.492   2.350   3.191  0.4030 -0.9305 -0.3101
  123POPC  H11X16465   4.409   2.288   3.152 -1.1537  0.9357 -0.0988
  123POPC  H11Y16466   4.435   2.444   3.207  0.0553 -1.1194 -0.4418
  123POPC  C31216467   4.553   2.316   3.333  0.1650  0.1672 -0.2936
  123POPC  H12X16468   4.481   2.322   3.418  0.7353 -0.0021  0.2034
  123POPC  H12Y16469   4.635   2.385   3.360  0.9994 -1.0366  0.3321
  123POPC  C31316470   4.613   2.172   3.333  0.8559  0.2180  0.6783
  123POPC  H13X16471   4.714   2.167   3.287  0.6289  0.6895  0.1180
  123POPC  H13Y16472   4.541   2.114   3.271  2.0250 -0.1668 -0.3596
  123POPC  C31416473   4.615   2.104   3.471 -0.1288 -0.3232  0.4998
  123POPC  H14X16474   4.645   1.997   3.475 -1.3691 -0.6961  0.3491
  123POPC  H14Y16475   4.510   2.108   3.508 -0.7631  2.3381 -1.3030
  123POPC  C31516476   4.707   2.175   3.572 -0.0528 -0.2234  0.6562
  123POPC  H15X16477   4.695   2.285   3.573 -0.5675 -0.2541 -0.6616
  123POPC  H15Y16478   4.813   2.157   3.543 -0.8985 -0.6139 -2.6036
  123POPC  C31616479   4.679   2.125   3.716 -0.1437  0.2790  1.0048
  123POPC  H16X16480   4.675   2.015   3.725  3.8515 -0.1195 -0.0781
  123POPC  H16Y16481   4.581   2.167   3.747  0.1754  1.1228  0.9094
  123POPC  H16Z16482   4.750   2.161   3.794 -0.5614  0.9754  1.0775
  124POPC     N16483   5.556   3.494   2.420 -0.0367  0.1429  0.5031
  124POPC   C1216484   5.551   3.576   2.549 -0.0731  0.2776  0.5995
  124POPC  H12A16485   5.565   3.681   2.528  0.1905  0.1269 -0.0087
  124POPC  H12B16486   5.630   3.536   2.611 -0.0674 -3.7950 -1.6908
  124POPC   C1316487   5.462   3.540   2.311  0.1119 -0.3598  0.0538
  124POPC  H13A16488   5.361   3.504   2.324  0.2112 -0.5340  0.3509
  124POPC  H13B16489   5.455   3.647   2.303  1.4500 -0.4129 -3.0213
  124POPC  H13C16490   5.504   3.503   2.219  0.8392 -1.0957  0.6602
  124POPC   C1416491   5.690   3.491   2.360  0.2119  0.1291 -0.0587
  124POPC  H14A16492   5.765   3.471   2.436  0.1197 -1.1758 -0.2808
  124POPC  H14B16493   5.697   3.407   2.292 -1.0467  0.3599 -0.4864
  124POPC  H14C16494   5.710   3.591   2.326  0.7783  0.4094  1.0353
  124POPC   C1516495   5.523   3.353   2.447 -0.4682  0.7178 -0.6860
  124POPC  H15A16496   5.425   3.351   2.493 -0.4303  0.3718 -0.6133
  124POPC  H15B16497   5.592   3.305   2.516 -0.7619  1.2974  0.0263
  124POPC  H15C16498   5.529   3.300   2.353  0.6489  3.5248 -2.3064
  124POPC   C1116499   5.425   3.562   2.635 -0.0580  0.2141 -0.5099
  124POPC  H11A16500   5.448   3.607   2.734 -1.2251  1.2889 -0.6909
  124POPC  H11B16501   5.404   3.456   2.659 -2.2127  1.0377  1.6442
  124POPC     P16502   5.298   3.773   2.538  0.2062  0.3069  0.3865
  124POPC   O1316503   5.160   3.807   2.489 -0.2323  0.3142  0.2131
  124POPC   O1416504   5.408   3.814   2.449 -0.0611 -0.2168 -0.0036
  124POPC   O1216505   5.310   3.623   2.577  0.0763 -0.5735  0.4820
  124POPC   O1116506   5.328   3.843   2.677 -0.5760  0.5870 -0.1834
  124POPC    C116507   5.254   3.813   2.795 -0.3952  0.4862  0.5287
  124POPC    HA16508   5.315   3.832   2.886 -1.9329  2.6273  1.1988
  124POPC    HB16509   5.230   3.705   2.805  0.4593  0.3914  1.7943
  124POPC    C216510   5.120   3.886   2.820  0.6748 -0.2850 -0.3174
  124POPC    HS16511   5.050   3.871   2.736 -0.1298  2.3058 -0.1897
  124POPC   O2116512   5.166   4.021   2.831 -0.1467  0.7936  0.0486
  124POPC   C2116513   5.070   4.109   2.831  0.2180  1.2160  0.1272
  124POPC   O2216514   4.958   4.077   2.799  0.8300 -0.0197 -0.3188
  124POPC   C2216515   5.114   4.245   2.876 -0.3062 -0.0418 -0.3760
  124POPC   H2R16516   5.209   4.276   2.828 -1.1664  1.5768 -1.1517
  124POPC   H2S16517   5.140   4.229   2.983 -1.4976 -0.1200 -0.0789
  124POPC    C316518   5.053   3.836   2.947 -0.5772  0.2191 -0.4399
  124POPC    HX16519   4.962   3.890   2.980  0.3748  1.7440 -0.1816
  124POPC    HY16520   5.115   3.870   3.033  0.2629 -0.4241 -0.7749
  124POPC   O3116521   5.038   3.690   2.962 -0.1074  0.0489 -0.0770
  124POPC   C3116522   4.919   3.640   2.917 -0.8886  1.0207 -0.1271
  124POPC   O3216523   4.839   3.699   2.849  0.2644 -0.3878 -0.2104
  124POPC   C3216524   4.939   3.489   2.953  0.0343 -0.5569  0.0219
  124POPC   H2X16525   4.941   3.486   3.064 -0.7415 -1.0364  0.0298
  124POPC   H2Y16526   5.040   3.463   2.917 -0.3654 -0.9356 -0.8719
  124POPC   C2316527   5.012   4.356   2.872 -0.2854 -0.4144  0.2910
  124POPC   H3R16528   4.931   4.348   2.948  0.8783 -0.0996  1.6159
  124POPC   H3S16529   4.970   4.352   2.770  1.1015  0.9442 -0.3907
  124POPC   C2416530   5.077   4.499   2.882 -0.0287 -0.2102  0.6139
  124POPC   H4R16531   4.989   4.563   2.857  0.4758  0.4209  0.4217
  124POPC   H4S16532   5.153   4.501   2.801 -0.4578 -2.0152  0.1255
  124POPC   C2516533   5.134   4.532   3.019 -0.4782 -0.4937 -0.5448
  124POPC   H5R16534   5.180   4.633   3.013 -1.2077 -0.2246 -1.9136
  124POPC   H5S16535   5.212   4.460   3.052 -1.0270  0.2735  2.8712
  124POPC   C2616536   5.037   4.549   3.137  0.1304 -0.2288  0.1163
  124POPC   H6R16537   4.995   4.450   3.165  1.1793 -0.9280 -0.7067
  124POPC   H6S16538   4.960   4.619   3.097 -0.0801 -0.0865  0.7633
  124POPC   C2716539   5.097   4.621   3.255 -0.4296 -0.1265 -0.2967
  124POPC   H7R16540   5.121   4.729   3.246  0.0138 -0.0575  1.2674
  124POPC   H7S16541   5.191   4.573   3.288 -1.0157  0.0925  1.8607
  124POPC   C2816542   4.999   4.609   3.376 -0.2648  0.2384 -0.9217
  124POPC   H8R16543   5.053   4.639   3.468 -2.6554  0.0501  0.6234
  124POPC   H8S16544   4.972   4.504   3.402  0.3865  0.5435  1.1936
  124POPC   C2916545   4.870   4.684   3.369 -0.0686 -0.9118  0.1670
  124POPC   H9116546   4.783   4.632   3.327 -0.1004 -0.4172 -0.4086
  124POPC  C21016547   4.849   4.810   3.421  0.0893  0.1717  0.1421
  124POPC  H10116548   4.750   4.856   3.408  0.2101  0.2386 -0.5852
  124POPC  C21116549   4.952   4.896   3.491 -0.2266 -0.5161  0.6080
  124POPC  H11R16550   4.980   4.969   3.413 -1.6197  0.3015  0.8404
  124POPC  H11S16551   5.047   4.842   3.512 -1.0815 -1.8570  1.1717
  124POPC  C21216552   4.924   4.980   3.614 -0.3949 -0.0030 -1.0579
  124POPC  H12R16553   4.899   4.912   3.698  2.5338  0.3597  0.2333
  124POPC  H12S16554   4.835   5.046   3.608  0.5692  1.6349  1.4241
  124POPC  C21316555   5.046   5.066   3.654 -0.5318 -0.3283  0.3277
  124POPC  H13R16556   5.069   5.120   3.560  1.1441 -1.4757  0.0269
  124POPC  H13S16557   5.135   5.002   3.675 -0.8905 -2.1982 -3.1569
  124POPC  C21416558   5.038   5.168   3.770 -0.0525 -0.4092 -0.9362
  124POPC  H14R16559   4.971   5.252   3.743  0.9118  0.8603  0.4244
  124POPC  H14S16560   5.136   5.218   3.789 -0.5060  0.4077 -0.7073
  124POPC  C21516561   5.001   5.113   3.913 -1.1182 -0.2602  0.4632
  124POPC  H15R16562   5.056   5.017   3.924  2.4005  1.2426 -1.9352
  124POPC  H15S16563   4.892   5.103   3.931 -1.1603 -0.4534  0.1191
  124POPC  C21616564   5.054   5.214   4.014  0.1127 -0.4064 -1.3965
  124POPC  H16R16565   5.017   5.313   3.981 -2.2685 -0.9309 -0.4986
  124POPC  H16S16566   5.165   5.208   4.015  0.3369  0.8141  3.2444
  124POPC  C21716567   5.006   5.191   4.159  0.5172  0.8997  0.6011
  124POPC  H17R16568   5.030   5.089   4.197 -1.3683  0.9865  2.2016
  124POPC  H17S16569   4.895   5.198   4.160  0.3910 -0.5695  0.1794
  124POPC  C21816570   5.065   5.289   4.260 -0.2685  0.2697  0.5607
  124POPC  H18R16571   4.989   5.309   4.338 -0.0618  0.8549  0.6108
  124POPC  H18S16572   5.079   5.387   4.211 -2.2235  0.0662 -0.5180
  124POPC  H18T16573   5.158   5.260   4.313  0.9782  0.7106 -1.2841
  124POPC   C3316574   4.832   3.392   2.895 -0.3189 -0.2216 -0.2531
  124POPC   H3X16575   4.841   3.404   2.785  0.5463 -1.3471 -0.3156
  124POPC   H3Y16576   4.727   3.417   2.922 -0.0563  0.0164  0.5981
  124POPC   C3416577   4.865   3.250   2.924  0.8088  0.2701 -0.6023
  124POPC   H4X16578   4.971   3.233   2.894  0.8628  0.6193 -0.6128
  124POPC   H4Y16579   4.808   3.185   2.854 -0.8040  2.2171 -1.1962
  124POPC   C3516580   4.842   3.200   3.070  0.0739 -0.2202 -0.3465
  124POPC   H5X16581   4.736   3.222   3.093  0.5526  2.3314 -0.2367
  124POPC   H5Y16582   4.907   3.265   3.132 -0.4013 -0.7416  0.7077
  124POPC   C3616583   4.874   3.054   3.081  0.6691 -0.3667  0.0366
  124POPC   H6X16584   4.967   3.023   3.029  1.7010  1.1093  0.9135
  124POPC   H6Y16585   4.802   2.994   3.022 -1.7664  1.5268  0.9191
  124POPC   C3716586   4.864   3.006   3.226 -0.3477 -0.9336 -0.4446
  124POPC   H7X16587   4.767   3.040   3.268  1.1518  0.3728  2.2271
  124POPC   H7Y16588   4.941   3.066   3.280  0.4348 -0.1394 -2.3523
  124POPC   C3816589   4.876   2.855   3.239 -0.3679  0.1633  0.3790
  124POPC   H8X16590   4.967   2.820   3.186 -0.5487  0.1094  0.1046
  124POPC   H8Y16591   4.795   2.791   3.197  0.5333 -0.4060 -0.5430
  124POPC   C3916592   4.903   2.810   3.378  0.3505  0.7678 -0.4647
  124POPC   H9X16593   4.830   2.856   3.447  0.5189 -1.7136  1.5308
  124POPC   H9Y16594   5.004   2.851   3.404 -0.5641  1.4725  2.2958
  124POPC  C31016595   4.913   2.656   3.390  0.1260 -0.1481 -0.0542
  124POPC  H10X16596   4.987   2.614   3.318 -0.0038 -1.0481  0.3192
  124POPC  H10Y16597   4.811   2.617   3.366 -0.2036  1.1320 -0.8042
  124POPC  C31116598   4.941   2.621   3.538  0.2007 -0.1011  0.3214
  124POPC  H11X16599   4.857   2.648   3.605  0.9035 -1.4608  1.8176
  124POPC  H11Y16600   5.032   2.676   3.568 -1.2758  1.6134  1.8771
  124POPC  C31216601   4.972   2.468   3.546 -0.6270  0.6218  0.6663
  124POPC  H12X16602   5.044   2.440   3.466  0.4236 -0.4073  1.9227
  124POPC  H12Y16603   4.892   2.401   3.507  1.4163 -1.7656  0.2868
  124POPC  C31316604   5.025   2.420   3.680 -0.1143  0.5319 -0.1001
  124POPC  H13X16605   4.943   2.441   3.752  1.2392  0.2369  1.5830
  124POPC  H13Y16606   5.111   2.480   3.715 -1.0701  1.0937  1.3814
  124POPC  C31416607   5.061   2.268   3.689  0.3500 -0.5083  0.3634
  124POPC  H14X16608   5.130   2.246   3.604  1.0032  2.2119  0.0900
  124POPC  H14Y16609   4.974   2.204   3.664 -0.4173  0.3138  0.8929
  124POPC  C31516610   5.107   2.212   3.823  0.2614  0.6126 -0.2255
  124POPC  H15X16611   5.196   2.269   3.860  1.1096 -0.2613 -0.8551
  124POPC  H15Y16612   5.138   2.106   3.811  1.2202  0.5777  2.0981
  124POPC  C31616613   5.001   2.208   3.935 -0.7069 -0.3230  0.2254
  124POPC  H16X16614   4.969   2.310   3.965 -0.3296 -0.2193  0.2741
  124POPC  H16Y16615   5.046   2.168   4.029  1.4886 -1.6208 -1.2809
  124POPC  H16Z16616   4.920   2.142   3.897 -0.9876 -1.7248  2.9791
  125POPC     N16617   7.641   0.660   2.133  0.8536  0.5960  0.8808
  125POPC   C1216618   7.563   0.565   2.222 -0.3999 -0.3315  0.1670
  125POPC  H12A16619   7.592   0.596   2.322 -0.8509  1.5239 -0.2291
  125POPC  H12B16620   7.603   0.468   2.200  0.6923  0.2931 -0.7335
  125POPC   C1316621   7.604   0.630   1.987 -0.6428 -0.1555  0.3083
  125POPC  H13A16622   7.497   0.633   1.974 -0.3051  1.6941 -3.1732
  125POPC  H13B16623   7.642   0.710   1.925 -0.5209 -1.5461 -1.4722
  125POPC  H13C16624   7.641   0.535   1.953  0.1759 -0.0448  0.8503
  125POPC   C1416625   7.619   0.803   2.161 -0.0048  0.0054 -0.2722
  125POPC  H14A16626   7.686   0.861   2.099 -0.0848 -0.3316 -0.6834
  125POPC  H14B16627   7.514   0.828   2.151  0.2050  2.1644  2.0803
  125POPC  H14C16628   7.636   0.821   2.266  2.8393  0.2510 -0.6929
  125POPC   C1516629   7.788   0.633   2.154  1.0229  0.5504 -0.2047
  125POPC  H15A16630   7.848   0.675   2.074 -0.1392  1.0584 -0.8330
  125POPC  H15B16631   7.812   0.528   2.152  0.2137  0.3608 -1.0153
  125POPC  H15C16632   7.816   0.675   2.249 -2.6787 -0.9343  1.7383
  125POPC   C1116633   7.414   0.563   2.223  0.2424 -0.4955  0.3767
  125POPC  H11A16634   7.379   0.668   2.215  1.2463 -0.2651 -1.7177
  125POPC  H11B16635   7.371   0.517   2.314  0.2481 -2.2453 -0.4629
  125POPC     P16636   7.385   0.329   2.111 -0.1177 -0.3975  0.1786
  125POPC   O1316637   7.444   0.288   1.981 -0.1606 -0.2355  0.1229
  125POPC   O1416638   7.260   0.276   2.145 -0.1604 -0.4073  0.1102
  125POPC   O1216639   7.372   0.487   2.109 -0.0476 -0.4841 -0.0716
  125POPC   O1116640   7.481   0.302   2.229  0.4397  0.2881  0.2537
  125POPC    C116641   7.483   0.183   2.313 -0.0324 -0.1845  0.7984
  125POPC    HA16642   7.482   0.090   2.252  0.5959 -1.0792  2.0827
  125POPC    HB16643   7.396   0.181   2.382 -1.1432 -0.1846 -0.5769
  125POPC    C216644   7.607   0.187   2.410 -0.6678  0.4240  0.2204
  125POPC    HS16645   7.607   0.092   2.467 -0.5217 -0.2871 -0.9275
  125POPC   O2116646   7.595   0.299   2.497  0.0112 -0.5306  0.2314
  125POPC   C2116647   7.557   0.273   2.611  0.1611 -0.0556  0.1787
  125POPC   O2216648   7.525   0.165   2.657  0.1349  0.3498  0.0715
  125POPC   C2216649   7.551   0.408   2.685 -0.1421 -0.1473  0.2309
  125POPC   H2R16650   7.460   0.462   2.650  0.2226 -1.0991 -2.4175
  125POPC   H2S16651   7.640   0.470   2.660  0.7424 -1.3316  0.3593
  125POPC    C316652   7.744   0.202   2.335  0.0155  0.1554  0.1822
  125POPC    HX16653   7.747   0.299   2.281  3.3121 -0.0194 -0.1320
  125POPC    HY16654   7.747   0.129   2.251 -0.4880  0.5559 -0.1949
  125POPC   O3116655   7.857   0.168   2.423 -0.3083 -0.0377 -0.2173
  125POPC   C3116656   7.898   0.273   2.494 -0.2306  0.6487  0.4733
  125POPC   O3216657   7.863   0.383   2.469  0.1435 -0.0892  0.1578
  125POPC   C3216658   7.998   0.236   2.602 -0.2289 -0.0312  0.1507
  125POPC   H2X16659   8.093   0.285   2.570 -0.6260  0.1797 -0.7185
  125POPC   H2Y16660   8.014   0.126   2.612  1.0384  0.1180 -0.0609
  125POPC   C2316661   7.543   0.392   2.836  0.5103  0.4014 -0.6717
  125POPC   H3R16662   7.607   0.309   2.872 -0.2728  0.5878  1.2586
  125POPC   H3S16663   7.441   0.356   2.861  0.0556  2.0159 -0.0846
  125POPC   C2416664   7.575   0.510   2.915 -0.5796 -0.1787 -0.4148
  125POPC   H4R16665   7.544   0.496   3.020 -0.7899  0.0277 -0.4475
  125POPC   H4S16666   7.504   0.592   2.892 -2.0751  0.3698  4.9030
  125POPC   C2516667   7.720   0.565   2.906  0.5646  0.1269  0.6871
  125POPC   H5R16668   7.744   0.583   2.799  2.2544  0.9700  1.1863
  125POPC   H5S16669   7.785   0.484   2.946 -2.2671 -2.2303  0.8667
  125POPC   C2616670   7.742   0.681   2.996 -0.3777  0.2628 -0.9627
  125POPC   H6R16671   7.659   0.756   2.992  0.2267  1.0282  0.0980
  125POPC   H6S16672   7.839   0.722   2.962  0.1885  0.3514  0.6450
  125POPC   C2716673   7.768   0.637   3.144  0.0321  0.3239  0.3590
  125POPC   H7R16674   7.847   0.559   3.149 -0.8171 -0.4786  2.0137
  125POPC   H7S16675   7.676   0.590   3.186 -0.4129 -1.2162 -2.1399
  125POPC   C2816676   7.814   0.757   3.230 -0.3342  0.3169 -0.1903
  125POPC   H8R16677   7.912   0.786   3.185  0.0019 -0.1577  0.2194
  125POPC   H8S16678   7.840   0.732   3.335  1.1408 -1.0671 -0.8344
  125POPC   C2916679   7.740   0.885   3.219  0.3168 -0.1725  0.1570
  125POPC   H9116680   7.757   0.938   3.125  1.5922  0.6827  0.8296
  125POPC  C21016681   7.642   0.927   3.304  0.1292  0.2268  0.5911
  125POPC  H10116682   7.577   1.011   3.277 -0.1859 -0.1670  0.1115
  125POPC  C21116683   7.610   0.859   3.432  0.2680 -0.1817 -1.0145
  125POPC  H11R16684   7.662   0.761   3.434 -2.0177 -1.5189 -2.5884
  125POPC  H11S16685   7.502   0.837   3.439  0.2751  0.2302  0.8539
  125POPC  C21216686   7.646   0.944   3.560 -0.0245 -0.7266 -0.0101
  125POPC  H12R16687   7.751   0.970   3.581 -0.6478 -0.8191  3.9676
  125POPC  H12S16688   7.623   0.887   3.652 -0.4332  0.8363  0.8897
  125POPC  C21316689   7.561   1.070   3.563  0.2859  0.4439 -0.0630
  125POPC  H13R16690   7.451   1.055   3.564  0.6802 -3.3151  0.3841
  125POPC  H13S16691   7.593   1.122   3.470 -1.3450 -0.5102 -1.2135
  125POPC  C21416692   7.581   1.147   3.695  1.1083 -1.1418 -0.6346
  125POPC  H14R16693   7.681   1.118   3.734  0.6549  1.1000  2.6191
  125POPC  H14S16694   7.507   1.112   3.770  0.5693 -1.0817 -1.1333
  125POPC  C21516695   7.568   1.292   3.674  1.3959 -0.3880  0.4706
  125POPC  H15R16696   7.480   1.316   3.610  0.6049  0.2324  1.7415
  125POPC  H15S16697   7.656   1.330   3.617 -0.6640  0.3612 -2.5029
  125POPC  C21616698   7.548   1.374   3.802  0.2015 -0.5884 -0.4221
  125POPC  H16R16699   7.446   1.396   3.840 -0.1459  3.5985 -3.0512
  125POPC  H16S16700   7.577   1.475   3.765 -0.4683 -1.4721 -3.6241
  125POPC  C21716701   7.641   1.344   3.919  0.6179 -0.0101 -0.4044
  125POPC  H17R16702   7.750   1.343   3.897  0.9692 -1.8235  1.1704
  125POPC  H17S16703   7.614   1.249   3.970  0.9903  0.6894  1.1406
  125POPC  C21816704   7.611   1.447   4.032  0.0395  0.1752 -0.3958
  125POPC  H18R16705   7.708   1.461   4.085 -0.7842  0.7940  1.0087
  125POPC  H18S16706   7.521   1.426   4.094  0.5072 -1.4683 -0.2106
  125POPC  H18T16707   7.599   1.551   3.997  3.1842  0.3002 -1.3595
  125POPC   C3316708   7.954   0.275   2.746  0.4369 -0.0606 -0.7375
  125POPC   H3X16709   7.868   0.220   2.792  2.2134 -0.7413  2.0674
  125POPC   H3Y16710   7.922   0.380   2.761 -2.7854 -0.8900 -0.9684
  125POPC   C3416711   8.063   0.244   2.848  0.0447 -0.2160 -0.4048
  125POPC   H4X16712   8.158   0.276   2.801 -0.4246  1.3162 -0.3653
  125POPC   H4Y16713   8.070   0.134   2.867 -2.3667 -0.2147  0.9413
  125POPC   C3516714   8.043   0.325   2.978  0.0564 -0.0428  0.2080
  125POPC   H5X16715   7.942   0.298   3.017 -1.0637  0.8644 -1.8767
  125POPC   H5Y16716   8.044   0.433   2.949 -3.6724  0.0611 -0.0156
  125POPC   C3616717   8.151   0.295   3.085  0.1325 -0.5654 -0.0540
  125POPC   H6X16718   8.250   0.336   3.054 -1.9995  2.5622 -3.6952
  125POPC   H6Y16719   8.177   0.187   3.090  0.8067 -0.3687  0.9410
  125POPC   C3716720   8.128   0.370   3.221 -0.4307 -0.1634  0.1350
  125POPC   H7X16721   8.097   0.474   3.198  1.2516  0.5329  0.8797
  125POPC   H7Y16722   8.222   0.365   3.281  0.6460 -2.2325 -1.6105
  125POPC   C3816723   8.013   0.304   3.304  0.6825  0.0869  0.4631
  125POPC   H8X16724   8.045   0.201   3.331  1.3273  0.4279  1.0691
  125POPC   H8Y16725   7.927   0.297   3.235  0.4280 -2.8949  0.9536
  125POPC   C3916726   7.976   0.391   3.426 -0.5700  0.3121  0.9664
  125POPC   H9X16727   7.991   0.499   3.407 -0.6754  0.6890  2.7958
  125POPC   H9Y16728   8.035   0.360   3.515  0.2574  0.3725  0.4456
  125POPC  C31016729   7.829   0.382   3.470  0.2143  0.8267  0.2821
  125POPC  H10X16730   7.807   0.276   3.496  2.9000  0.4844  1.4458
  125POPC  H10Y16731   7.760   0.405   3.386  0.4880 -1.6562 -0.6896
  125POPC  C31116732   7.790   0.462   3.592  0.3151  0.1264  0.5254
  125POPC  H11X16733   7.811   0.569   3.570  0.8628 -0.1874 -0.5274
  125POPC  H11Y16734   7.856   0.440   3.680 -0.9001  0.7396  1.6293
  125POPC  C31216735   7.638   0.448   3.611  0.3998 -0.4018 -0.2099
  125POPC  H12X16736   7.604   0.342   3.616 -3.3831  0.6021 -1.1535
  125POPC  H12Y16737   7.590   0.486   3.518 -3.5808 -0.7362  1.5142
  125POPC  C31316738   7.602   0.516   3.741  0.4706 -0.2012 -0.0863
  125POPC  H13X16739   7.639   0.621   3.734 -0.4115  0.1594  0.6428
  125POPC  H13Y16740   7.661   0.468   3.822 -1.5103 -3.2383 -0.2696
  125POPC  C31416741   7.455   0.499   3.775 -0.0009  0.0592  0.2337
  125POPC  H14X16742   7.442   0.397   3.818 -0.2970  0.9374  2.3753
  125POPC  H14Y16743   7.390   0.503   3.685 -0.4419  0.1062  0.5499
  125POPC  C31516744   7.412   0.604   3.876  0.5701  0.2143 -0.7156
  125POPC  H15X16745   7.399   0.703   3.827 -1.0924 -0.1322 -1.0518
  125POPC  H15Y16746   7.475   0.613   3.966  1.0298 -2.0164 -0.7478
  125POPC  C31616747   7.265   0.570   3.918 -0.2437 -0.4477 -1.0740
  125POPC  H16X16748   7.213   0.526   3.831  0.0964  0.9012 -1.9986
  125POPC  H16Y16749   7.213   0.665   3.944  2.3515  1.2755 -1.8024
  125POPC  H16Z16750   7.267   0.508   4.010 -0.7603  1.3830  0.2420
  126POPC     N16751   2.665   1.858   1.465 -0.0556 -0.1856  0.3822
  126POPC   C1216752   2.676   1.752   1.578 -0.2496  0.1048  0.8678
  126POPC  H12A16753   2.723   1.658   1.552  1.0462  0.6139  1.2488
  126POPC  H12B16754   2.571   1.735   1.597 -0.5925  0.5288 -0.5854
  126POPC   C1316755   2.563   1.806   1.362 -0.8365  0.5480 -0.1428
  126POPC  H13A16756   2.473   1.776   1.412 -0.1507 -1.2510  0.0711
  126POPC  H13B16757   2.528   1.882   1.293 -0.0025 -0.6040 -1.9274
  126POPC  H13C16758   2.595   1.725   1.298  0.0999 -0.5460  1.6319
  126POPC   C1416759   2.610   1.980   1.526 -0.6584  0.1590 -0.0771
  126POPC  H14A16760   2.560   2.036   1.448 -0.6365 -2.2923 -1.9622
  126POPC  H14B16761   2.529   1.953   1.593  0.5770 -0.9210  1.0319
  126POPC  H14C16762   2.679   2.033   1.590  1.0190 -1.8378 -0.1155
  126POPC   C1516763   2.798   1.886   1.401  0.1324 -0.3394 -0.4834
  126POPC  H15A16764   2.867   1.911   1.480  0.5952  0.4728 -1.1231
  126POPC  H15B16765   2.790   1.969   1.333 -0.8667 -0.4038 -0.4560
  126POPC  H15C16766   2.832   1.797   1.350 -1.5248 -1.7621  0.8087
  126POPC   C1116767   2.742   1.800   1.707  0.0440  0.6120  0.2303
  126POPC  H11A16768   2.720   1.734   1.794  1.1404  1.4473  1.1775
  126POPC  H11B16769   2.684   1.887   1.746 -0.7719  0.8815 -1.5144
  126POPC     P16770   2.991   1.722   1.713 -0.2929 -0.2256  0.1950
  126POPC   O1316771   3.118   1.787   1.673 -0.0101 -0.3938  0.1529
  126POPC   O1416772   2.954   1.596   1.646  0.1684 -0.1632 -0.5905
  126POPC   O1216773   2.881   1.830   1.687  0.1530 -0.3972 -0.2235
  126POPC   O1116774   2.995   1.699   1.868 -0.9384 -1.3041 -0.2634
  126POPC    C116775   3.060   1.797   1.950 -0.1811 -0.6045  0.2762
  126POPC    HA16776   3.048   1.897   1.903  1.4299 -1.6991 -2.7653
  126POPC    HB16777   3.170   1.784   1.947  0.1933  2.1473 -1.7164
  126POPC    C216778   2.989   1.804   2.089 -0.2859 -0.4248  0.3056
  126POPC    HS16779   3.027   1.896   2.139  0.4040 -1.9875  2.8434
  126POPC   O2116780   3.033   1.704   2.182 -0.2948  0.3526  0.4389
  126POPC   C2116781   3.161   1.696   2.209 -0.1571  0.3669  0.0100
  126POPC   O2216782   3.243   1.778   2.175 -0.2393 -0.0766 -0.2151
  126POPC   C2216783   3.186   1.573   2.295  0.4433 -0.9620  0.5400
  126POPC   H2R16784   3.288   1.558   2.335 -0.2300 -1.1454  2.2458
  126POPC   H2S16785   3.161   1.481   2.239  1.3322 -1.4937  0.9882
  126POPC    C316786   2.838   1.821   2.073 -0.2897  0.1934  0.1140
  126POPC    HX16787   2.804   1.734   2.013 -0.0226 -2.4726  3.4789
  126POPC    HY16788   2.825   1.921   2.027 -3.4715 -1.1673 -2.3051
  126POPC   O3116789   2.782   1.816   2.206 -0.0301  0.1613  0.0611
  126POPC   C3116790   2.740   1.698   2.252  0.0372 -0.3240 -0.2393
  126POPC   O3216791   2.734   1.592   2.188 -0.6172 -0.0008 -0.7233
  126POPC   C3216792   2.701   1.719   2.394 -0.3723  0.5530 -0.4609
  126POPC   H2X16793   2.610   1.782   2.392  0.3576  1.6421 -2.0461
  126POPC   H2Y16794   2.781   1.782   2.439 -1.6699  1.4493  0.6416
  126POPC   C2316795   3.099   1.589   2.413  0.0868 -0.0612 -0.3699
  126POPC   H3R16796   3.097   1.490   2.463  0.3395 -0.7862 -1.7227
  126POPC   H3S16797   2.988   1.595   2.404 -0.0531 -1.4854  0.1602
  126POPC   C2416798   3.151   1.689   2.517  0.3722 -0.0009  0.6561
  126POPC   H4R16799   3.170   1.785   2.464 -1.7348 -0.7979 -1.8018
  126POPC   H4S16800   3.251   1.664   2.556  1.9082  2.2906 -1.4688
  126POPC   C2516801   3.057   1.717   2.629  0.8851  0.0099 -0.4225
  126POPC   H5R16802   3.003   1.626   2.662  3.1476 -0.9568  0.9356
  126POPC   H5S16803   2.979   1.785   2.589  0.1766 -0.0861  0.7579
  126POPC   C2616804   3.133   1.776   2.748  0.4940 -0.2694  0.2328
  126POPC   H6R16805   3.198   1.697   2.792 -0.4704 -1.8714 -1.1016
  126POPC   H6S16806   3.053   1.800   2.821  0.3752 -1.0065  0.3522
  126POPC   C2716807   3.204   1.903   2.706  0.2845 -0.4507  0.1935
  126POPC   H7R16808   3.133   1.973   2.657  0.8612  0.9473  1.2958
  126POPC   H7S16809   3.284   1.876   2.634  0.0733 -1.5700  0.3598
  126POPC   C2816810   3.261   1.965   2.837  0.0815 -0.2057  0.0915
  126POPC   H8R16811   3.335   1.891   2.874  0.6912  0.5376  0.3755
  126POPC   H8S16812   3.177   1.968   2.911  0.5248  0.9063  0.5673
  126POPC   C2916813   3.321   2.095   2.800  0.2823 -0.0326  0.3442
  126POPC   H9116814   3.321   2.138   2.698  0.6100 -1.4359 -0.2653
  126POPC  C21016815   3.377   2.184   2.885 -0.6523  0.2076 -0.2164
  126POPC  H10116816   3.437   2.264   2.838 -0.3038 -1.1208 -2.1566
  126POPC  C21116817   3.379   2.169   3.033 -0.3657  0.6178 -0.2673
  126POPC  H11R16818   3.356   2.064   3.061  3.5202 -0.3433 -0.0634
  126POPC  H11S16819   3.304   2.233   3.084 -1.7134 -1.1139  0.0267
  126POPC  C21216820   3.523   2.190   3.084 -0.1046 -0.1170  0.3027
  126POPC  H12R16821   3.554   2.295   3.063 -0.9377  0.1533  0.4069
  126POPC  H12S16822   3.599   2.128   3.033  1.1789  0.2588  1.6799
  126POPC  C21316823   3.533   2.163   3.231  0.2728  0.1346 -0.9041
  126POPC  H13R16824   3.511   2.055   3.247  0.0373  0.1654 -1.0180
  126POPC  H13S16825   3.451   2.223   3.276  0.7393  0.4014 -0.3938
  126POPC  C21416826   3.672   2.191   3.300 -0.1121 -0.8796  0.1972
  126POPC  H14R16827   3.705   2.296   3.286 -1.4858 -0.5360 -0.6654
  126POPC  H14S16828   3.748   2.147   3.232  0.7007  0.0961  0.4487
  126POPC  C21516829   3.700   2.144   3.446  0.5300 -0.5500 -0.3113
  126POPC  H15R16830   3.605   2.127   3.501  0.8771  0.4577  0.6449
  126POPC  H15S16831   3.746   2.233   3.494 -0.3453 -0.7372  0.9172
  126POPC  C21616832   3.794   2.021   3.456  0.1596 -0.8482  0.2219
  126POPC  H16R16833   3.890   2.043   3.404 -0.2482  1.9900  0.5067
  126POPC  H16S16834   3.729   1.946   3.405 -2.1881 -0.6604  2.7121
  126POPC  C21716835   3.819   1.977   3.603 -0.6283 -0.4624 -0.5723
  126POPC  H17R16836   3.729   2.002   3.663  0.0452  1.6406 -0.3709
  126POPC  H17S16837   3.900   2.039   3.647 -2.2416  0.2621  1.5994
  126POPC  C21816838   3.858   1.828   3.618 -0.4605 -1.7946  0.4432
  126POPC  H18R16839   3.769   1.772   3.581 -0.9400 -0.8392  0.1102
  126POPC  H18S16840   3.873   1.807   3.726 -2.4217 -0.8808  0.9576
  126POPC  H18T16841   3.941   1.804   3.549  0.5991  1.9482  0.1850
  126POPC   C3316842   2.684   1.588   2.475 -0.4769  0.4345  0.2669
  126POPC   H3X16843   2.779   1.540   2.506  0.3992  1.3249 -0.9162
  126POPC   H3Y16844   2.633   1.514   2.409  0.3802  0.1643 -0.1126
  126POPC   C3416845   2.599   1.596   2.598 -0.2578 -0.0534 -0.3653
  126POPC   H4X16846   2.546   1.498   2.603  0.6763 -0.5303  0.3761
  126POPC   H4Y16847   2.526   1.680   2.599  0.8437  1.0067  2.5093
  126POPC   C3516848   2.679   1.594   2.729 -0.2168  0.4775 -1.0801
  126POPC   H5X16849   2.747   1.681   2.712 -1.9796  2.2318  0.3662
  126POPC   H5Y16850   2.739   1.501   2.738  0.4928  1.0663  0.9657
  126POPC   C3616851   2.593   1.621   2.856 -0.0196  1.2894  0.3713
  126POPC   H6X16852   2.511   1.546   2.856  1.8077 -0.8528 -1.0980
  126POPC   H6Y16853   2.541   1.719   2.851  2.1738  2.5351  0.5143
  126POPC   C3716854   2.679   1.621   2.983 -0.1530  0.3964 -0.6769
  126POPC   H7X16855   2.748   1.535   2.998 -0.4355  0.1952 -0.4962
  126POPC   H7Y16856   2.601   1.600   3.060 -2.1255 -0.1636 -2.7280
  126POPC   C3816857   2.760   1.755   3.006 -0.2940 -0.5141  0.4830
  126POPC   H8X16858   2.810   1.772   2.908 -2.2438  0.3130 -0.4313
  126POPC   H8Y16859   2.848   1.736   3.071  0.5162  0.7983 -0.1824
  126POPC   C3916860   2.667   1.871   3.043 -1.2450 -0.0995  1.0546
  126POPC   H9X16861   2.588   1.886   2.966 -1.0950  2.2129  1.2735
  126POPC   H9Y16862   2.724   1.966   3.040  0.1795 -0.9546  0.4962
  126POPC  C31016863   2.606   1.858   3.187 -0.5859  0.2589 -0.0622
  126POPC  H10X16864   2.690   1.847   3.258 -1.5815  0.7489  1.2403
  126POPC  H10Y16865   2.548   1.763   3.187  1.5806 -1.1153 -0.1123
  126POPC  C31116866   2.519   1.977   3.221  0.3900 -0.2132  0.7026
  126POPC  H11X16867   2.441   1.977   3.143  2.0509 -2.7834 -1.0977
  126POPC  H11Y16868   2.575   2.073   3.223 -0.1946  0.1268  1.0984
  126POPC  C31216869   2.452   1.953   3.356 -0.1756  0.5686 -0.3811
  126POPC  H12X16870   2.518   1.978   3.441 -1.2975  0.2410  0.6155
  126POPC  H12Y16871   2.426   1.845   3.355  2.5664 -0.1647  0.3032
  126POPC  C31316872   2.330   2.036   3.380  0.3576  0.2595 -0.4775
  126POPC  H13X16873   2.260   2.019   3.296 -1.0293 -0.5317  0.7953
  126POPC  H13Y16874   2.355   2.144   3.381  0.3453  0.2620 -0.3821
  126POPC  C31416875   2.252   2.001   3.505  0.2764  0.8349  0.1832
  126POPC  H14X16876   2.224   1.895   3.489 -1.6832  1.4106 -0.6114
  126POPC  H14Y16877   2.159   2.061   3.512  1.0654  2.0500  0.5004
  126POPC  C31516878   2.329   2.019   3.637  0.4914  0.2542 -0.5433
  126POPC  H15X16879   2.348   2.127   3.657 -1.0684  1.4108 -4.3882
  126POPC  H15Y16880   2.430   1.974   3.626 -0.2101 -1.2379 -1.1975
  126POPC  C31616881   2.250   1.973   3.763 -0.4529  0.1848 -1.1551
  126POPC  H16X16882   2.159   2.032   3.783  0.0430  1.1732 -1.7505
  126POPC  H16Y16883   2.315   2.004   3.847 -1.8292  2.3599 -0.8062
  126POPC  H16Z16884   2.227   1.865   3.749  2.8260 -0.6059 -1.2665
  127POPC     N16885   3.839   7.090   1.455  0.4599 -0.1501  0.4382
  127POPC   C1216886   3.856   7.092   1.607  0.2160  0.7220 -0.3696
  127POPC  H12A16887   3.963   7.085   1.618  0.2145 -0.7851 -1.0401
  127POPC  H12B16888   3.809   7.000   1.639  1.9441 -0.8992 -2.1999
  127POPC   C1316889   3.708   7.147   1.406  0.9544  0.2853 -0.0977
  127POPC  H13A16890   3.621   7.097   1.444  0.3364 -0.1343 -1.9229
  127POPC  H13B16891   3.703   7.251   1.433  0.5882  0.3240 -0.3088
  127POPC  H13C16892   3.695   7.146   1.298 -1.2062  0.5283  0.1122
  127POPC   C1416893   3.944   7.187   1.407 -0.5136  0.3301 -0.2246
  127POPC  H14A16894   3.951   7.189   1.299  1.1264 -1.2407 -0.2058
  127POPC  H14B16895   3.930   7.287   1.444  3.2846  1.2189 -0.7466
  127POPC  H14C16896   4.045   7.165   1.438 -0.7494 -0.0065  0.3316
  127POPC   C1516897   3.861   6.950   1.405 -0.0165 -0.2597 -0.0183
  127POPC  H15A16898   3.953   6.904   1.438 -0.5744 -1.7518 -0.4654
  127POPC  H15B16899   3.859   6.928   1.300  1.3975 -2.4002  0.3541
  127POPC  H15C16900   3.773   6.891   1.428  0.3005 -0.6958  0.0925
  127POPC   C1116901   3.802   7.209   1.692  0.3191 -0.2719 -0.2103
  127POPC  H11A16902   3.781   7.190   1.800 -1.5602  1.8632 -0.1263
  127POPC  H11B16903   3.701   7.227   1.650 -0.2876 -0.5872  1.0675
  127POPC     P16904   4.043   7.324   1.713  0.2646  0.3068  0.1417
  127POPC   O1316905   4.103   7.428   1.628  0.4931  0.2639  0.5200
  127POPC   O1416906   4.102   7.192   1.689 -0.1263 -0.1891  0.0147
  127POPC   O1216907   3.888   7.324   1.683  0.5178 -0.5253  0.2614
  127POPC   O1116908   4.054   7.359   1.861 -0.1520  0.5328 -0.0647
  127POPC    C116909   4.019   7.484   1.920  0.1360  0.0244 -0.3644
  127POPC    HA16910   3.961   7.462   2.012  0.7856 -0.3066 -0.0257
  127POPC    HB16911   3.955   7.548   1.856 -0.5522 -0.8504 -0.5733
  127POPC    C216912   4.146   7.568   1.959 -0.5550 -0.1356  0.2760
  127POPC    HS16913   4.227   7.566   1.883 -1.2491 -0.9557 -0.4659
  127POPC   O2116914   4.191   7.519   2.090 -0.5046  0.3369  0.9758
  127POPC   C2116915   4.323   7.504   2.104  0.1857 -0.4687  0.3629
  127POPC   O2216916   4.402   7.546   2.027 -0.5813  0.1855  0.1312
  127POPC   C2216917   4.352   7.416   2.228 -0.2982  0.4662 -0.4293
  127POPC   H2R16918   4.343   7.307   2.207  0.0143  0.4038 -0.2529
  127POPC   H2S16919   4.265   7.438   2.293 -1.4653 -1.2866 -1.3225
  127POPC    C316920   4.118   7.723   1.973 -0.0780  0.5999  0.0903
  127POPC    HX16921   4.109   7.745   1.864  1.2823 -2.3411 -0.6967
  127POPC    HY16922   4.205   7.784   2.007 -0.4498  0.6167  1.0467
  127POPC   O3116923   4.004   7.746   2.055 -0.5325  0.8124 -0.5482
  127POPC   C3116924   4.018   7.786   2.176 -0.4116  0.1363 -0.0844
  127POPC   O3216925   4.123   7.798   2.241  0.1607  0.4771  0.5201
  127POPC   C3216926   3.882   7.805   2.239 -0.6843 -0.0262 -0.4174
  127POPC   H2X16927   3.817   7.722   2.206 -1.1918 -0.8661  2.3862
  127POPC   H2Y16928   3.846   7.904   2.205  1.0042  0.1416 -1.8578
  127POPC   C2316929   4.479   7.424   2.314  0.0065  0.2114  0.6020
  127POPC   H3R16930   4.560   7.377   2.254 -1.1615  0.4760 -1.2331
  127POPC   H3S16931   4.467   7.357   2.402  0.8581 -2.3557 -1.1327
  127POPC   C2416932   4.522   7.563   2.354  0.9348 -0.5301  0.3217
  127POPC   H4R16933   4.434   7.611   2.401  1.0231 -0.3237  0.2785
  127POPC   H4S16934   4.546   7.610   2.256  1.3259 -3.2795 -1.0025
  127POPC   C2516935   4.632   7.559   2.448 -1.5799 -0.7925 -0.6978
  127POPC   H5R16936   4.708   7.641   2.446  2.4792 -4.1952 -0.4061
  127POPC   H5S16937   4.697   7.469   2.438 -0.1444  0.3100 -1.7202
  127POPC   C2616938   4.584   7.551   2.589  0.2590 -0.3315  0.4713
  127POPC   H6R16939   4.500   7.479   2.591  0.3761 -0.5607 -1.4053
  127POPC   H6S16940   4.539   7.650   2.611  0.5344  0.5270 -2.4118
  127POPC   C2716941   4.698   7.527   2.685 -0.1360 -0.3981  0.0420
  127POPC   H7R16942   4.794   7.563   2.644 -0.3343  1.3958  1.0322
  127POPC   H7S16943   4.717   7.418   2.689  1.5446 -0.2886 -2.5032
  127POPC   C2816944   4.684   7.593   2.824 -0.3345  0.4381  0.8126
  127POPC   H8R16945   4.589   7.561   2.872 -0.2865 -3.6218 -1.3946
  127POPC   H8S16946   4.693   7.704   2.823 -2.0404  0.6142  1.5606
  127POPC   C2916947   4.802   7.532   2.905 -0.2387  0.0265  0.2194
  127POPC   H9116948   4.882   7.485   2.847 -0.1398 -0.2930  0.6123
  127POPC  C21016949   4.808   7.521   3.039 -0.0512 -0.3130 -0.1339
  127POPC  H10116950   4.897   7.475   3.084  0.5134  0.6603 -0.2293
  127POPC  C21116951   4.704   7.588   3.132 -0.4218 -0.4953 -0.0328
  127POPC  H11R16952   4.608   7.588   3.077 -1.5132  1.0342  1.7663
  127POPC  H11S16953   4.723   7.697   3.144 -1.3422 -0.3753  0.3830
  127POPC  C21216954   4.700   7.520   3.271 -0.2483 -0.5687  0.0511
  127POPC  H12R16955   4.802   7.525   3.315  1.2589 -2.2766 -2.9546
  127POPC  H12S16956   4.680   7.411   3.257  3.0567 -1.5303  1.8624
  127POPC  C21316957   4.601   7.590   3.361  0.4807 -0.9170 -0.4223
  127POPC  H13R16958   4.504   7.589   3.309 -0.3913 -1.6977  1.1343
  127POPC  H13S16959   4.626   7.698   3.361  1.3095 -1.0999 -0.3509
  127POPC  C21416960   4.586   7.530   3.499 -0.8272  0.1781  0.0333
  127POPC  H14R16961   4.685   7.505   3.544  0.0344  1.2750 -1.1781
  127POPC  H14S16962   4.528   7.441   3.469 -0.3888  0.8057 -3.0088
  127POPC  C21516963   4.505   7.616   3.589 -0.3258 -0.2487  0.2871
  127POPC  H15R16964   4.416   7.651   3.532 -0.9876 -0.2524  1.2859
  127POPC  H15S16965   4.560   7.710   3.614 -2.0762  0.5792  1.2177
  127POPC  C21616966   4.472   7.543   3.717  0.2696 -0.2573 -0.7359
  127POPC  H16R16967   4.438   7.611   3.798  1.0385 -0.6666 -0.0602
  127POPC  H16S16968   4.569   7.510   3.759 -1.4941 -0.8059  3.3698
  127POPC  C21716969   4.371   7.427   3.711 -0.7809  0.5640  0.6238
  127POPC  H17R16970   4.395   7.352   3.632  0.2066  1.4895  0.0210
  127POPC  H17S16971   4.280   7.483   3.683  0.8792  3.5558  0.8516
  127POPC  C21816972   4.338   7.352   3.839 -0.2011  0.2801 -0.0324
  127POPC  H18R16973   4.425   7.291   3.872 -0.2687 -0.7773 -1.6914
  127POPC  H18S16974   4.255   7.278   3.829  0.0712 -0.2737  1.4465
  127POPC  H18T16975   4.306   7.424   3.917  0.4150  0.8185 -0.2731
  127POPC   C3316976   3.884   7.826   2.398  0.5725 -0.3917  0.5358
  127POPC   H3X16977   3.786   7.873   2.421  0.0927 -0.8635 -0.4982
  127POPC   H3Y16978   3.956   7.908   2.420 -1.5609  1.4620  1.0566
  127POPC   C3416979   3.901   7.692   2.471 -0.4975 -1.0499  0.0685
  127POPC   H4X16980   4.002   7.658   2.439 -0.5657 -0.7861 -0.4452
  127POPC   H4Y16981   3.827   7.614   2.442 -0.0263 -1.4004 -0.2043
  127POPC   C3516982   3.899   7.714   2.620  0.3394  0.3143 -0.1355
  127POPC   H5X16983   3.949   7.808   2.653  0.4320  0.6319 -1.1408
  127POPC   H5Y16984   3.969   7.643   2.669  0.0395  0.4330  0.4746
  127POPC   C3616985   3.760   7.720   2.687  0.1206  1.0699  0.8227
  127POPC   H6X16986   3.715   7.620   2.673  2.0741  0.2130  0.2896
  127POPC   H6Y16987   3.706   7.803   2.635 -0.4121  0.9516  1.1883
  127POPC   C3716988   3.777   7.742   2.839  0.3085  0.5101  0.2577
  127POPC   H7X16989   3.844   7.826   2.868 -0.3447  0.6761  1.3400
  127POPC   H7Y16990   3.802   7.647   2.890 -0.1451 -0.6660 -1.6178
  127POPC   C3816991   3.641   7.789   2.897 -0.1876  0.6664  0.0378
  127POPC   H8X16992   3.613   7.892   2.865  0.1075  1.2147  1.5063
  127POPC   H8Y16993   3.655   7.792   3.007 -2.0542  2.7527  0.3041
  127POPC   C3916994   3.530   7.676   2.874  0.2300  0.1786 -0.5996
  127POPC   H9X16995   3.581   7.578   2.881 -1.4817 -0.7865 -1.1647
  127POPC   H9Y16996   3.492   7.672   2.769 -0.2561 -0.0610 -0.4165
  127POPC  C31016997   3.422   7.676   2.981 -0.1066 -0.0138 -0.6876
  127POPC  H10X16998   3.491   7.677   3.067  0.8348  2.7997 -1.3900
  127POPC  H10Y16999   3.366   7.580   2.966 -2.0842  1.1862 -1.3684
  127POPC  C31117000   3.313   7.790   2.985 -0.2295  0.1376  0.5551
  127POPC  H11X17001   3.253   7.787   2.891 -0.9538  0.3773  0.9971
  127POPC  H11Y17002   3.357   7.891   2.986  1.3831 -0.5079 -0.5570
  127POPC  C31217003   3.224   7.771   3.097 -0.4618 -0.3932  0.0322
  127POPC  H12X17004   3.285   7.724   3.177  1.0199 -2.1021 -2.0047
  127POPC  H12Y17005   3.139   7.700   3.089 -0.6438 -0.2312  0.5079
  127POPC  C31317006   3.173   7.906   3.156 -0.0005  0.5443 -0.4960
  127POPC  H13X17007   3.127   7.959   3.070 -0.0926  1.4333  0.0891
  127POPC  H13Y17008   3.257   7.969   3.191  1.5135 -0.6417 -1.8245
  127POPC  C31417009   3.063   7.897   3.267 -0.3495  0.8506  0.3164
  127POPC  H14X17010   2.975   7.881   3.200  0.9559 -0.0034 -1.2757
  127POPC  H14Y17011   3.050   7.995   3.317  0.5011 -0.4312  3.2419
  127POPC  C31517012   3.096   7.811   3.386 -0.7985  0.1597  0.6882
  127POPC  H15X17013   3.190   7.850   3.431  0.1212  0.1454 -1.1493
  127POPC  H15Y17014   3.117   7.706   3.357  0.1456  0.4155  0.4068
  127POPC  C31617015   2.979   7.815   3.477 -0.0222 -0.7244 -0.2521
  127POPC  H16X17016   2.984   7.741   3.560 -1.9878 -0.1744  0.4094
  127POPC  H16Y17017   2.883   7.806   3.421 -0.7156  2.6862  0.1891
  127POPC  H16Z17018   2.980   7.919   3.516 -1.5483 -0.6462 -0.3535
  128POPC     N17019   5.194   3.327   1.930 -0.4068  0.8047  1.2348
  128POPC   C1217020   5.248   3.362   2.063  0.4056  0.1229 -0.4917
  128POPC  H12A17021   5.207   3.454   2.100  0.6931 -0.1228  0.4666
  128POPC  H12B17022   5.355   3.375   2.060  0.3183  1.2174  0.4794
  128POPC   C1317023   5.240   3.196   1.872  0.1073 -0.3682 -0.0679
  128POPC  H13A17024   5.344   3.209   1.844  0.3065 -0.0277  0.7753
  128POPC  H13B17025   5.234   3.115   1.944  1.5096 -1.0922 -0.7061
  128POPC  H13C17026   5.189   3.177   1.779 -0.0199 -2.4340  0.3801
  128POPC   C1417027   5.044   3.318   1.945  0.4125  0.2244  0.2777
  128POPC  H14A17028   4.998   3.398   2.002 -1.0686 -0.9350  0.7781
  128POPC  H14B17029   4.986   3.313   1.854 -0.0157 -0.8479  0.6018
  128POPC  H14C17030   5.034   3.220   1.988  1.2032  0.2838  0.6042
  128POPC   C1517031   5.228   3.443   1.841  0.2400  0.7682  0.1666
  128POPC  H15A17032   5.334   3.462   1.830  0.3131  0.5051  0.4086
  128POPC  H15B17033   5.188   3.536   1.881  0.7084 -0.1856  3.0654
  128POPC  H15C17034   5.196   3.433   1.738  0.6722  3.7289 -0.3418
  128POPC   C1117035   5.227   3.265   2.182 -0.4074 -0.2168 -0.8337
  128POPC  H11A17036   5.119   3.252   2.206 -0.2564 -3.9328 -1.6697
  128POPC  H11B17037   5.269   3.302   2.278  1.2394 -0.7536 -1.3067
  128POPC     P17038   5.418   3.077   2.211  0.3469  0.3949  0.0259
  128POPC   O1317039   5.518   3.179   2.177  0.6070  0.4772  0.5497
  128POPC   O1417040   5.442   2.944   2.152  0.0914 -0.0390  0.0600
  128POPC   O1217041   5.282   3.134   2.158  0.0593 -0.5370  0.1171
  128POPC   O1117042   5.400   3.070   2.368  0.1793  0.2623 -0.3272
  128POPC    C117043   5.275   3.023   2.420  0.3025 -0.2686 -0.2693
  128POPC    HA17044   5.287   2.919   2.457 -0.6150 -0.3574 -0.1952
  128POPC    HB17045   5.192   3.023   2.346  0.2467 -0.2419 -0.2057
  128POPC    C217046   5.221   3.112   2.532 -0.2958  0.1094  0.8380
  128POPC    HS17047   5.229   3.215   2.491  1.0144 -1.1082 -2.3702
  128POPC   O2117048   5.309   3.094   2.648  0.2493  0.1136  0.0340
  128POPC   C2117049   5.288   3.187   2.746 -0.0523 -0.0974  0.5347
  128POPC   O2217050   5.222   3.291   2.735  0.2094 -0.3706 -0.0404
  128POPC   C2217051   5.361   3.147   2.876 -0.1933  0.2306  0.4427
  128POPC   H2R17052   5.451   3.210   2.857 -0.3886 -0.4716 -3.7744
  128POPC   H2S17053   5.382   3.039   2.867 -0.3448  0.3390 -1.9204
  128POPC    C317054   5.073   3.077   2.563 -0.3889 -0.4125 -0.1842
  128POPC    HX17055   5.023   3.097   2.466  1.0127  0.6474 -0.7183
  128POPC    HY17056   5.022   3.144   2.635  2.0407  4.0250 -2.2224
  128POPC   O3117057   5.062   2.933   2.582 -0.0338 -0.4922 -0.0133
  128POPC   C3117058   5.065   2.879   2.702  0.1272 -0.7447 -0.1016
  128POPC   O3217059   5.075   2.941   2.807  0.3290 -0.3359 -0.2581
  128POPC   C3217060   5.029   2.731   2.694  0.0683  0.6201 -0.0365
  128POPC   H2X17061   5.122   2.679   2.660  0.0187  0.5574 -0.0768
  128POPC   H2Y17062   4.954   2.709   2.615 -0.7681 -0.4672  1.0342
  128POPC   C2317063   5.278   3.174   3.000  0.3602 -0.5235  0.0587
  128POPC   H3R17064   5.175   3.137   2.985  1.2003 -2.5970 -0.9802
  128POPC   H3S17065   5.259   3.283   3.012 -0.8300 -0.9814  3.2138
  128POPC   C2417066   5.330   3.115   3.127  0.5197  0.1765 -0.0806
  128POPC   H4R17067   5.274   3.162   3.211 -0.9694 -0.6379 -0.5830
  128POPC   H4S17068   5.438   3.138   3.132  0.3079  1.7636 -1.8626
  128POPC   C2517069   5.312   2.964   3.140  1.0226  0.3644 -0.6142
  128POPC   H5R17070   5.360   2.910   3.055  0.4473 -0.2476 -0.5535
  128POPC   H5S17071   5.202   2.955   3.139  1.0835 -1.5895  1.9305
  128POPC   C2617072   5.368   2.907   3.274 -0.2673  0.2059  0.4001
  128POPC   H6R17073   5.316   2.968   3.351 -2.6454  1.0837 -1.7489
  128POPC   H6S17074   5.476   2.931   3.270  0.0862 -1.2920  0.2776
  128POPC   C2717075   5.346   2.759   3.292  0.8304 -0.6753  0.2879
  128POPC   H7R17076   5.417   2.702   3.229 -0.0922  0.1621 -1.5621
  128POPC   H7S17077   5.244   2.732   3.257  0.2738 -0.6351  1.8050
  128POPC   C2817078   5.366   2.714   3.436 -0.1844 -0.0316  0.0349
  128POPC   H8R17079   5.313   2.783   3.505 -0.4739 -2.0147  1.8744
  128POPC   H8S17080   5.474   2.714   3.464  0.3894 -1.7311 -1.9381
  128POPC   C2917081   5.313   2.578   3.455  0.7017  0.1534 -0.3587
  128POPC   H9117082   5.221   2.563   3.398 -0.8255  0.9665  1.7819
  128POPC  C21017083   5.359   2.484   3.545 -0.6381  0.2932  0.5476
  128POPC  H10117084   5.320   2.382   3.552 -2.5310  1.0370  1.7393
  128POPC  C21117085   5.480   2.492   3.629 -1.4412 -0.2523 -0.7657
  128POPC  H11R17086   5.516   2.592   3.661 -0.2349 -1.2832  1.2783
  128POPC  H11S17087   5.551   2.417   3.589 -1.5198 -1.0705  0.5446
  128POPC  C21217088   5.438   2.424   3.763 -0.6865 -0.7029  0.3291
  128POPC  H12R17089   5.526   2.377   3.812 -1.3516 -1.3814  0.8966
  128POPC  H12S17090   5.376   2.332   3.760  1.7746 -2.4917  0.8269
  128POPC  C21317091   5.356   2.513   3.860 -0.0995  0.7366  0.6870
  128POPC  H13R17092   5.251   2.529   3.828  0.2162 -1.5622 -1.9084
  128POPC  H13S17093   5.400   2.615   3.869  1.7663  0.0849 -0.4458
  128POPC  C21417094   5.362   2.454   3.998 -0.6180 -0.7656 -0.0927
  128POPC  H14R17095   5.466   2.455   4.036  1.0636 -3.6775 -3.9639
  128POPC  H14S17096   5.344   2.345   3.991 -2.1525 -0.5145 -0.4550
  128POPC  C21517097   5.262   2.514   4.094  0.3009  0.2709  0.0552
  128POPC  H15R17098   5.159   2.506   4.052 -0.9362 -0.2072  2.9378
  128POPC  H15S17099   5.292   2.620   4.109 -0.9039  0.6127  0.1491
  128POPC  C21617100   5.277   2.437   4.223  0.6348 -0.6541  0.0755
  128POPC  H16R17101   5.259   2.503   4.312  2.7045  0.0945  0.0047
  128POPC  H16S17102   5.379   2.394   4.229  0.1866 -1.9059 -0.8740
  128POPC  C21717103   5.182   2.317   4.211 -0.0322  0.9234 -0.2122
  128POPC  H17R17104   5.214   2.244   4.134 -0.5520 -1.8307  2.0123
  128POPC  H17S17105   5.084   2.358   4.178 -2.8486 -1.8304  3.7374
  128POPC  C21817106   5.171   2.236   4.343  0.6084  0.2575 -0.7602
  128POPC  H18R17107   5.157   2.308   4.426  2.3385  0.3076 -0.4808
  128POPC  H18S17108   5.257   2.174   4.374  1.0188  1.3383  0.3560
  128POPC  H18T17109   5.076   2.180   4.326  1.1436 -0.5725 -1.0278
  128POPC   C3317110   4.995   2.663   2.828 -0.3319 -0.2601 -0.0306
  128POPC   H3X17111   4.890   2.676   2.860  0.7546  1.8662  3.1263
  128POPC   H3Y17112   5.049   2.718   2.907 -0.4305  1.1650 -0.9221
  128POPC   C3417113   5.036   2.519   2.824  0.7388  0.1870 -0.0911
  128POPC   H4X17114   5.139   2.510   2.785  1.2489 -0.6658  1.3882
  128POPC   H4Y17115   4.965   2.466   2.756 -0.0961  0.4487  0.5568
  128POPC   C3517116   5.037   2.461   2.964  0.5762 -0.1916 -0.1184
  128POPC   H5X17117   4.929   2.446   2.986  0.1781  1.2973 -0.9363
  128POPC   H5Y17118   5.097   2.518   3.037  0.0143  0.8560 -0.4565
  128POPC   C3617119   5.084   2.313   2.957 -0.2119  0.0693  0.1422
  128POPC   H6X17120   5.193   2.314   2.935 -0.6255 -0.1059 -2.2253
  128POPC   H6Y17121   5.032   2.259   2.874 -0.7052  1.0409 -0.2052
  128POPC   C3717122   5.055   2.256   3.091 -0.3152 -0.5839  0.1941
  128POPC   H7X17123   4.945   2.247   3.087 -0.4677  1.3001 -2.6749
  128POPC   H7Y17124   5.099   2.314   3.175  1.1833 -0.5824 -0.5465
  128POPC   C3817125   5.110   2.115   3.090  0.4825  0.1776 -0.3484
  128POPC   H8X17126   5.217   2.116   3.061  1.6538  0.7900  3.5222
  128POPC   H8Y17127   5.064   2.046   3.015  0.7461 -1.5482  1.0245
  128POPC   C3917128   5.087   2.056   3.230  0.2867 -0.7271 -0.1033
  128POPC   H9X17129   4.977   2.050   3.243  0.4587 -0.1020  1.9232
  128POPC   H9Y17130   5.142   2.110   3.309  0.4411 -0.1141 -0.6237
  128POPC  C31017131   5.129   1.910   3.224 -0.0323  0.9428 -0.0807
  128POPC  H10X17132   5.233   1.887   3.195  0.2404 -0.5875  1.9264
  128POPC  H10Y17133   5.062   1.850   3.158 -0.4226  1.9942 -0.6655
  128POPC  C31117134   5.124   1.857   3.372 -0.4430  0.6778 -0.7030
  128POPC  H11X17135   5.196   1.916   3.434  0.4550 -2.3632  1.3462
  128POPC  H11Y17136   5.165   1.754   3.377 -2.6633 -0.2537 -0.7152
  128POPC  C31217137   4.979   1.862   3.426 -0.1057 -0.9408  0.0224
  128POPC  H12X17138   4.915   1.826   3.343 -0.2529  3.2986 -1.9898
  128POPC  H12Y17139   4.947   1.964   3.458 -1.4863 -1.6394  0.9872
  128POPC  C31317140   4.964   1.777   3.561  0.1483  0.7117 -0.1416
  128POPC  H13X17141   5.035   1.821   3.634 -1.0472  2.2327  0.1675
  128POPC  H13Y17142   5.010   1.682   3.529 -0.3855 -0.2208  1.7096
  128POPC  C31417143   4.827   1.760   3.628 -0.3036 -1.2024  0.1396
  128POPC  H14X17144   4.752   1.737   3.550 -0.5479  0.5369 -0.1841
  128POPC  H14Y17145   4.797   1.856   3.677 -1.1243 -2.3575  2.0444
  128POPC  C31517146   4.798   1.647   3.724 -0.2166 -0.0319  0.6202
  128POPC  H15X17147   4.843   1.663   3.824  1.8934  1.3123 -0.4715
  128POPC  H15Y17148   4.841   1.557   3.675  0.5654  0.3618  0.5719
  128POPC  C31617149   4.651   1.610   3.729 -0.2287 -0.3415  0.4865
  128POPC  H16X17150   4.582   1.692   3.758  0.8906  0.3302  1.3346
  128POPC  H16Y17151   4.640   1.532   3.807  1.9467 -2.1160 -0.8837
  128POPC  H16Z17152   4.624   1.568   3.629 -0.6529 -0.7625  0.7734
  129POPC     N17153   6.612   4.652   1.950  0.6239  0.1420 -0.0292
  129POPC   C1217154   6.717   4.560   2.005  0.0057  0.2325 -0.1780
  129POPC  H12A17155   6.736   4.593   2.106 -0.4124 -0.9362  0.2993
  129POPC  H12B17156   6.810   4.578   1.952  0.4265 -0.7765  0.1835
  129POPC   C1317157   6.587   4.631   1.808 -0.4146 -0.4663  0.4472
  129POPC  H13A17158   6.576   4.524   1.796 -1.9848 -0.4858  1.6696
  129POPC  H13B17159   6.493   4.682   1.791 -0.3811 -0.3132  0.7024
  129POPC  H13C17160   6.670   4.665   1.749 -0.8171  0.9648  0.6689
  129POPC   C1417161   6.485   4.616   2.024  0.2848  0.0621 -0.5197
  129POPC  H14A17162   6.466   4.511   2.041 -1.1784  0.5158  0.9006
  129POPC  H14B17163   6.475   4.677   2.112  1.3108 -0.4058 -0.0617
  129POPC  H14C17164   6.402   4.654   1.967  0.4695  2.2703  0.5835
  129POPC   C1517165   6.650   4.791   1.981 -0.8323 -0.3104 -0.2983
  129POPC  H15A17166   6.571   4.864   1.967 -1.6093 -0.8261  1.1580
  129POPC  H15B17167   6.741   4.812   1.927 -0.9617 -0.3351 -0.5313
  129POPC  H15C17168   6.675   4.804   2.085 -0.0593  3.6050 -0.8527
  129POPC   C1117169   6.693   4.407   2.010  0.1003 -0.3234  0.4594
  129POPC  H11A17170   6.795   4.366   2.026  1.1995  1.9852 -0.1906
  129POPC  H11B17171   6.669   4.357   1.914  0.1168  1.4470 -0.5019
  129POPC     P17172   6.629   4.385   2.263  0.2766  0.0517 -0.3926
  129POPC   O1317173   6.761   4.328   2.293 -0.1721 -0.1366  0.3770
  129POPC   O1417174   6.509   4.334   2.333 -0.4333  0.9357 -0.4972
  129POPC   O1217175   6.599   4.377   2.109 -0.1335 -0.1588  0.5392
  129POPC   O1117176   6.623   4.533   2.289  0.2436 -0.0656  0.1282
  129POPC    C117177   6.738   4.594   2.356  0.6868  0.2174 -0.5977
  129POPC    HA17178   6.737   4.701   2.326 -1.6110  0.8351  1.3673
  129POPC    HB17179   6.841   4.557   2.336  1.4250  2.6810 -1.7041
  129POPC    C217180   6.726   4.580   2.512  0.6044 -0.0036 -0.6081
  129POPC    HS17181   6.687   4.477   2.525 -1.6945  0.4590 -2.8139
  129POPC   O2117182   6.629   4.680   2.553  0.1573 -0.4022 -0.2281
  129POPC   C2117183   6.565   4.648   2.667 -0.1482  0.1449 -0.1866
  129POPC   O2217184   6.568   4.539   2.719  0.0279 -0.2098  0.1039
  129POPC   C2217185   6.484   4.774   2.712 -0.2147  1.0990  0.0140
  129POPC   H2R17186   6.401   4.772   2.639  0.5993 -0.4952 -0.9396
  129POPC   H2S17187   6.554   4.859   2.696  1.8738 -0.9503 -2.7533
  129POPC    C317188   6.866   4.604   2.579  0.3519 -0.4336 -0.1968
  129POPC    HX17189   6.904   4.701   2.542 -1.5438  0.3577 -0.1588
  129POPC    HY17190   6.929   4.521   2.539 -0.8543 -1.2041 -0.5747
  129POPC   O3117191   6.866   4.605   2.726 -0.1876 -0.0111 -0.4165
  129POPC   C3117192   6.906   4.498   2.794 -0.2650  0.3614 -0.0340
  129POPC   O3217193   6.931   4.388   2.747  0.1921 -0.2353  0.0115
  129POPC   C3217194   6.908   4.538   2.937 -0.1964 -0.3840 -0.2854
  129POPC   H2X17195   6.997   4.601   2.958  0.4351 -0.5460 -2.2401
  129POPC   H2Y17196   6.925   4.448   3.000  2.0333  0.0555 -0.1728
  129POPC   C2317197   6.439   4.767   2.859 -0.2256 -0.6354  0.0917
  129POPC   H3R17198   6.520   4.784   2.932 -1.8834 -0.1779  1.9211
  129POPC   H3S17199   6.386   4.670   2.875 -3.4482  0.9333 -0.1853
  129POPC   C2417200   6.336   4.882   2.890  0.3072  0.1013  0.5257
  129POPC   H4R17201   6.254   4.894   2.815  0.5409 -1.2878  0.0147
  129POPC   H4S17202   6.397   4.974   2.878  0.2555  0.0940  0.2003
  129POPC   C2517203   6.273   4.878   3.026  0.0274 -0.2677  0.0157
  129POPC   H5R17204   6.354   4.847   3.096 -0.5171  1.6156  1.5688
  129POPC   H5S17205   6.200   4.795   3.035 -1.4828  0.7751 -1.8533
  129POPC   C2617206   6.198   5.006   3.069  0.3849 -0.3584  0.5746
  129POPC   H6R17207   6.116   5.025   2.996  1.3553 -0.8089 -0.6656
  129POPC   H6S17208   6.263   5.096   3.065 -0.2102  0.0488 -2.0815
  129POPC   C2717209   6.137   4.990   3.212  0.2325 -0.2862  0.8972
  129POPC   H7R17210   6.230   4.972   3.269  1.6644  1.0888 -0.8584
  129POPC   H7S17211   6.071   4.902   3.213  1.7702 -1.5053  0.0347
  129POPC   C2817212   6.056   5.113   3.263  0.9283  0.2536 -0.1059
  129POPC   H8R17213   5.991   5.130   3.175  0.5047  0.4180  0.2353
  129POPC   H8S17214   6.132   5.193   3.276  2.0625 -0.4363 -2.0093
  129POPC   C2917215   5.974   5.086   3.385  0.1267  0.5646  0.2306
  129POPC   H9117216   5.866   5.084   3.360  0.4058 -0.0041 -0.9992
  129POPC  C21017217   6.016   5.032   3.498  0.8175  0.0030  0.1607
  129POPC  H10117218   5.945   5.013   3.580 -0.6333 -2.1521 -1.4772
  129POPC  C21117219   6.154   4.986   3.542  0.3687 -0.1391  0.4685
  129POPC  H11R17220   6.240   5.007   3.475  1.4863 -2.7357  0.9366
  129POPC  H11S17221   6.165   4.876   3.559  2.3211 -0.2861 -1.2986
  129POPC  C21217222   6.182   5.051   3.678  0.1376  0.7014  0.5014
  129POPC  H12R17223   6.111   5.011   3.752  2.2337  0.4620  2.4919
  129POPC  H12S17224   6.154   5.159   3.676 -2.0096  0.1744  0.3971
  129POPC  C21317225   6.328   5.038   3.722  0.0538  0.0400  0.0981
  129POPC  H13R17226   6.402   5.086   3.656 -0.5924  0.8930 -0.0241
  129POPC  H13S17227   6.354   4.930   3.724 -2.3949 -0.6219 -0.0601
  129POPC  C21417228   6.367   5.098   3.859 -0.1510 -0.0198  0.1808
  129POPC  H14R17229   6.470   5.060   3.874 -0.7892 -1.6618  0.6263
  129POPC  H14S17230   6.305   5.057   3.942  0.2772  1.1253  1.0962
  129POPC  C21517231   6.385   5.249   3.866  0.5949 -0.0399 -0.3834
  129POPC  H15R17232   6.312   5.306   3.804  1.4189  1.7037  0.1660
  129POPC  H15S17233   6.478   5.294   3.825  0.4389  1.6990  1.0689
  129POPC  C21617234   6.375   5.306   4.009  0.5430  0.1381 -0.3013
  129POPC  H16R17235   6.407   5.412   4.005 -1.8534  1.0822  2.1923
  129POPC  H16S17236   6.434   5.238   4.075  1.8570 -1.1489 -2.6508
  129POPC  C21717237   6.227   5.306   4.067  0.2149  0.0263  0.5818
  129POPC  H17R17238   6.233   5.325   4.176 -0.9743  0.9433  0.5093
  129POPC  H17S17239   6.178   5.210   4.043  1.6484 -0.6161  0.1288
  129POPC  C21817240   6.138   5.422   4.004  0.2053 -0.4906 -0.2673
  129POPC  H18R17241   6.029   5.407   4.020 -0.3581  2.3146 -0.8133
  129POPC  H18S17242   6.148   5.440   3.895 -2.5130  1.8395 -0.2695
  129POPC  H18T17243   6.163   5.517   4.057 -0.7931 -1.5279  2.2487
  129POPC   C3317244   6.774   4.608   2.993 -0.4817 -0.6175  0.9722
  129POPC   H3X17245   6.687   4.557   2.947  0.7042 -2.2137  0.4094
  129POPC   H3Y17246   6.764   4.709   2.948 -2.1843 -0.6182  1.2613
  129POPC   C3417247   6.752   4.620   3.140  0.1076 -0.6541 -0.1608
  129POPC   H4X17248   6.819   4.692   3.191 -0.4228 -0.1003 -0.2372
  129POPC   H4Y17249   6.776   4.522   3.185  1.4238 -0.2451  0.0526
  129POPC   C3517250   6.605   4.664   3.185 -0.3806  0.1045 -0.5037
  129POPC   H5X17251   6.542   4.623   3.103  0.2957  0.3701 -1.1727
  129POPC   H5Y17252   6.585   4.774   3.181  1.5507  0.4933 -0.0302
  129POPC   C3617253   6.550   4.604   3.320  0.8840  0.2349 -0.2514
  129POPC   H6X17254   6.602   4.670   3.393  2.9553 -0.7391 -0.7875
  129POPC   H6Y17255   6.600   4.509   3.346  2.9142  1.8548  2.2317
  129POPC   C3717256   6.400   4.600   3.339  0.2237  0.1110  0.4177
  129POPC   H7X17257   6.345   4.576   3.245 -1.3209  0.1353  1.2780
  129POPC   H7Y17258   6.368   4.704   3.359 -1.2712 -0.2073 -0.1491
  129POPC   C3817259   6.350   4.494   3.438 -0.2204 -0.4151  0.1003
  129POPC   H8X17260   6.400   4.398   3.413 -0.7334 -1.1544  1.7159
  129POPC   H8Y17261   6.240   4.484   3.429 -0.0461 -2.2304 -0.4087
  129POPC   C3917262   6.386   4.531   3.579 -0.3306 -0.0095 -0.3204
  129POPC   H9X17263   6.370   4.639   3.599 -1.3940 -0.2404  0.1620
  129POPC   H9Y17264   6.495   4.510   3.582 -0.8337 -3.9135 -2.6755
  129POPC  C31017265   6.305   4.448   3.676 -0.2226  0.1883  0.4878
  129POPC  H10X17266   6.330   4.342   3.657 -0.1642  0.5844 -2.0462
  129POPC  H10Y17267   6.198   4.457   3.651  0.1152 -0.2492 -1.2513
  129POPC  C31117268   6.326   4.468   3.825 -0.6215  0.0216 -0.5949
  129POPC  H11X17269   6.296   4.377   3.881  0.6510  0.4621  0.8574
  129POPC  H11Y17270   6.261   4.555   3.847 -0.5925  0.0436 -0.5962
  129POPC  C31217271   6.473   4.498   3.877 -0.0830  0.3647  0.0775
  129POPC  H12X17272   6.505   4.594   3.832 -0.2675 -0.8764 -2.9134
  129POPC  H12Y17273   6.526   4.410   3.835 -0.0697  0.5165 -0.2239
  129POPC  C31317274   6.494   4.517   4.024 -0.0485  0.3272 -0.7536
  129POPC  H13X17275   6.605   4.516   4.036 -0.1137 -0.7235 -0.1038
  129POPC  H13Y17276   6.450   4.431   4.079  2.8747 -2.4275 -2.3632
  129POPC  C31417277   6.458   4.656   4.076  0.9055  0.8482  0.6078
  129POPC  H14X17278   6.350   4.672   4.057  1.0261  0.8900 -0.0493
  129POPC  H14Y17279   6.506   4.741   4.024  1.4432  0.6170  0.7147
  129POPC  C31517280   6.475   4.675   4.230  0.1504 -0.1549 -0.8221
  129POPC  H15X17281   6.426   4.589   4.281 -1.3110  0.6539 -0.7997
  129POPC  H15Y17282   6.424   4.765   4.272  2.0261  0.2995  0.5855
  129POPC  C31617283   6.621   4.679   4.277 -0.3716  0.9103  0.0520
  129POPC  H16X17284   6.677   4.763   4.231 -0.5136  1.7113  1.2879
  129POPC  H16Y17285   6.668   4.581   4.256  0.2833  1.0037  1.0327
  129POPC  H16Z17286   6.623   4.695   4.387  1.4209  0.0841  0.1644
  130POPC     N17287   2.967   5.171   1.658 -0.2106  0.6202 -0.0224
  130POPC   C1217288   3.103   5.214   1.719  0.1143  0.2123  0.4619
  130POPC  H12A17289   3.103   5.203   1.826 -1.1889  0.3488  0.4921
  130POPC  H12B17290   3.110   5.319   1.697  0.2755  0.0413 -0.3363
  130POPC   C1317291   2.849   5.254   1.698  0.1004 -0.0982  1.1142
  130POPC  H13A17292   2.756   5.202   1.679 -0.3372  1.0247 -0.0017
  130POPC  H13B17293   2.843   5.276   1.803  0.3571 -2.7943  1.7524
  130POPC  H13C17294   2.837   5.352   1.653 -2.4775 -0.6400  0.4340
  130POPC   C1417295   2.971   5.158   1.513 -0.3751 -0.5394  0.1393
  130POPC  H14A17296   3.025   5.066   1.498 -0.5210 -0.6180  0.0902
  130POPC  H14B17297   2.872   5.148   1.471 -0.2439  1.3647 -0.6848
  130POPC  H14C17298   3.022   5.244   1.474 -1.7552 -0.2169 -1.0233
  130POPC   C1517299   2.939   5.037   1.722  0.3778  0.4414  0.0241
  130POPC  H15A17300   2.844   5.004   1.684 -1.6238  3.4222  2.0855
  130POPC  H15B17301   2.919   5.049   1.827 -1.6635 -1.8868 -0.0216
  130POPC  H15C17302   3.014   4.960   1.709 -0.2314 -0.3562  1.1056
  130POPC   C1117303   3.230   5.146   1.660 -0.1138 -0.2132  0.0381
  130POPC  H11A17304   3.313   5.213   1.691 -1.0275  0.1149  1.9388
  130POPC  H11B17305   3.243   5.157   1.550 -0.2669  0.8256  0.1210
  130POPC     P17306   3.303   4.981   1.841 -0.2355 -0.0305 -0.0362
  130POPC   O1317307   3.450   4.953   1.837 -0.1706  0.9241 -0.1672
  130POPC   O1417308   3.214   4.872   1.879  0.2466 -0.2295 -0.9878
  130POPC   O1217309   3.262   5.010   1.691 -0.0388 -0.2828  0.6367
  130POPC   O1117310   3.276   5.114   1.924 -0.4044  0.0931 -0.4688
  130POPC    C117311   3.178   5.111   2.026  0.0044  0.3616 -0.1690
  130POPC    HA17312   3.123   5.015   2.037 -0.5241  0.8796  2.4058
  130POPC    HB17313   3.098   5.181   1.993 -0.0281 -1.0231 -3.4006
  130POPC    C217314   3.225   5.147   2.171 -0.0426  0.2324  0.0980
  130POPC    HS17315   3.264   5.251   2.173  1.4432 -0.2365 -1.5100
  130POPC   O2117316   3.318   5.046   2.214  0.0816 -0.6633 -0.0581
  130POPC   C2117317   3.423   5.085   2.286 -0.7923 -0.5931  0.5667
  130POPC   O2217318   3.429   5.195   2.334  0.3736  0.4002 -0.3245
  130POPC   C2217319   3.535   4.978   2.292  0.2446 -0.3841 -0.7164
  130POPC   H2R17320   3.569   4.964   2.187  0.7067 -2.7351 -0.3083
  130POPC   H2S17321   3.498   4.877   2.320 -0.9495  0.1642 -0.2356
  130POPC    C317322   3.104   5.148   2.273 -0.0080  0.3791 -0.4440
  130POPC    HX17323   3.060   5.047   2.263 -0.0907  0.4726 -1.0529
  130POPC    HY17324   3.024   5.210   2.227 -0.6541  1.6059  2.1574
  130POPC   O3117325   3.136   5.184   2.414 -0.5935 -0.0927 -0.0718
  130POPC   C3117326   3.125   5.307   2.457 -0.9029  0.0748  0.0343
  130POPC   O3217327   3.086   5.402   2.398  0.2973  0.6779  0.1594
  130POPC   C3217328   3.151   5.303   2.610 -0.6498 -0.1442  0.5534
  130POPC   H2X17329   3.248   5.251   2.618 -0.0202  0.9229  0.0726
  130POPC   H2Y17330   3.072   5.242   2.659  0.0814  0.5745  2.7286
  130POPC   C2317331   3.642   5.032   2.388  0.9270 -0.4333 -0.3946
  130POPC   H3R17332   3.593   5.063   2.483  1.3009 -2.2479  0.4418
  130POPC   H3S17333   3.690   5.124   2.349  1.9423 -1.2890 -1.2136
  130POPC   C2417334   3.747   4.921   2.427  0.1754  0.4186  0.2687
  130POPC   H4R17335   3.812   4.983   2.493  3.3807 -0.7163 -1.5811
  130POPC   H4S17336   3.811   4.888   2.342 -0.7972 -0.8820  0.0171
  130POPC   C2517337   3.676   4.807   2.503 -0.1770  0.0721  0.2806
  130POPC   H5R17338   3.638   4.743   2.421  1.9302 -1.2691  0.2862
  130POPC   H5S17339   3.598   4.850   2.570 -0.2186  1.7205 -0.7704
  130POPC   C2617340   3.767   4.732   2.594 -0.5659  0.4975  0.5267
  130POPC   H6R17341   3.817   4.793   2.673  0.9497 -1.5858  1.2695
  130POPC   H6S17342   3.850   4.688   2.534 -0.6862 -0.9393  1.3685
  130POPC   C2717343   3.687   4.615   2.662  0.2063  0.3862  0.4756
  130POPC   H7R17344   3.655   4.558   2.572  3.1686  2.2621 -1.9675
  130POPC   H7S17345   3.597   4.666   2.703  0.2700  2.4061 -1.6630
  130POPC   C2817346   3.762   4.557   2.788  0.0231 -0.3172 -0.7645
  130POPC   H8R17347   3.692   4.507   2.859 -0.1442 -2.2337 -2.2277
  130POPC   H8S17348   3.818   4.636   2.844 -0.0474  0.1870 -1.3991
  130POPC   C2917349   3.874   4.471   2.747 -0.0202  0.2730  0.0411
  130POPC   H9117350   3.953   4.518   2.686 -0.3194  1.4912  0.5758
  130POPC  C21017351   3.883   4.335   2.755 -0.6566  1.1046 -0.5175
  130POPC  H10117352   3.964   4.291   2.695  0.1832 -2.0714  2.5778
  130POPC  C21117353   3.790   4.239   2.825  0.4435  0.2107 -0.3029
  130POPC  H11R17354   3.728   4.184   2.751 -0.0927  0.5988 -0.1493
  130POPC  H11S17355   3.720   4.297   2.888  0.3355 -1.6509  1.3717
  130POPC  C21217356   3.858   4.142   2.917  0.2198  0.3440  0.2763
  130POPC  H12R17357   3.773   4.098   2.975 -0.7185  1.6190 -0.0972
  130POPC  H12S17358   3.922   4.188   2.996 -0.1471  0.0852  0.7349
  130POPC  C21317359   3.925   4.029   2.835 -0.3344  0.2646 -0.4121
  130POPC  H13R17360   4.027   4.069   2.815  0.0314 -1.0770 -1.4113
  130POPC  H13S17361   3.874   4.014   2.737 -0.9037 -1.6732  0.1403
  130POPC  C21417362   3.939   3.895   2.910 -0.9658 -0.3980  0.3579
  130POPC  H14R17363   3.999   3.818   2.857 -0.2360 -0.8701  1.8089
  130POPC  H14S17364   3.835   3.859   2.927 -1.1162 -0.6550 -1.0109
  130POPC  C21517365   4.009   3.909   3.045 -0.6468 -0.3957  0.1672
  130POPC  H15R17366   4.070   4.002   3.044 -0.2419 -0.6647 -0.6043
  130POPC  H15S17367   4.076   3.822   3.056 -0.1875  0.2138  3.0275
  130POPC  C21617368   3.917   3.892   3.168 -0.4485 -0.5703  0.7031
  130POPC  H16R17369   3.867   3.793   3.171 -0.8895 -0.5048 -1.9264
  130POPC  H16S17370   3.839   3.971   3.157  0.5268  0.0529 -2.8265
  130POPC  C21717371   4.005   3.920   3.296  0.4772 -0.4615  0.3549
  130POPC  H17R17372   4.034   4.027   3.302  0.0323 -0.4167  3.9302
  130POPC  H17S17373   4.095   3.854   3.296  1.7683  1.2237  0.6382
  130POPC  C21817374   3.921   3.895   3.421 -0.9369  1.1545  0.0947
  130POPC  H18R17375   3.870   3.987   3.456 -0.9255 -0.2692  4.5579
  130POPC  H18S17376   3.986   3.864   3.506 -3.1683 -0.8503  1.1973
  130POPC  H18T17377   3.849   3.814   3.398  0.2826  0.4315 -1.3693
  130POPC   C3317378   3.177   5.444   2.671 -0.0361  0.2731 -0.4134
  130POPC   H3X17379   3.079   5.494   2.655  0.2742  1.0042 -0.0802
  130POPC   H3Y17380   3.257   5.487   2.607  0.9658 -1.0797 -0.1280
  130POPC   C3417381   3.218   5.450   2.821 -0.5981 -0.7538 -0.1896
  130POPC   H4X17382   3.159   5.366   2.864 -0.8715 -0.4684 -0.0047
  130POPC   H4Y17383   3.196   5.551   2.861  2.0513  1.2265 -3.2225
  130POPC   C3517384   3.366   5.437   2.853  0.0737  1.0059 -0.6394
  130POPC   H5X17385   3.416   5.531   2.821  0.4346  1.2114  0.4880
  130POPC   H5Y17386   3.394   5.343   2.800 -2.5499 -3.5879  4.9890
  130POPC   C3617387   3.396   5.428   3.010  0.0645  0.1785  0.4042
  130POPC   H6X17388   3.341   5.341   3.053  2.4596 -1.2750  0.7360
  130POPC   H6Y17389   3.374   5.513   3.077 -0.0206 -0.9009  1.7903
  130POPC   C3717390   3.544   5.408   3.037  0.1587  0.2196  0.2934
  130POPC   H7X17391   3.597   5.479   2.970 -2.5669  2.1902  0.0673
  130POPC   H7Y17392   3.566   5.308   2.994  1.1055 -0.4828  2.2997
  130POPC   C3817393   3.592   5.408   3.189 -0.8319  0.3384  0.1382
  130POPC   H8X17394   3.599   5.514   3.222  1.3596  0.5661 -0.8619
  130POPC   H8Y17395   3.688   5.354   3.198 -0.5297  0.6491 -1.1071
  130POPC   C3917396   3.496   5.334   3.288  0.2886 -0.3427  0.1463
  130POPC   H9X17397   3.441   5.252   3.238 -2.4021  0.4136  1.6844
  130POPC   H9Y17398   3.415   5.400   3.325  0.3480 -0.1224 -0.1132
  130POPC  C31017399   3.561   5.257   3.407 -0.5534 -0.3482  0.0287
  130POPC  H10X17400   3.655   5.204   3.383 -0.7632 -0.9762  0.5555
  130POPC  H10Y17401   3.489   5.184   3.450  0.6992 -2.0383 -0.6475
  130POPC  C31117402   3.595   5.356   3.523  0.3676  0.3026 -0.0597
  130POPC  H11X17403   3.504   5.411   3.555  0.3061 -0.2385  0.7221
  130POPC  H11Y17404   3.678   5.421   3.486  3.0842 -0.5867  3.8340
  130POPC  C31217405   3.630   5.282   3.655 -0.0560 -0.7134  0.0399
  130POPC  H12X17406   3.696   5.196   3.631  0.7237  0.5059 -2.4904
  130POPC  H12Y17407   3.537   5.248   3.705 -0.7464  0.3832 -0.4626
  130POPC  C31317408   3.698   5.368   3.757  0.1889  0.0443  0.5275
  130POPC  H13X17409   3.789   5.411   3.710  2.3000 -2.0974  2.4072
  130POPC  H13Y17410   3.729   5.304   3.843  0.8395  0.1495  0.3760
  130POPC  C31417411   3.608   5.475   3.818  0.1631 -0.0621 -0.4087
  130POPC  H14X17412   3.510   5.435   3.851  0.3469  1.8592  2.8684
  130POPC  H14Y17413   3.584   5.553   3.743 -3.6906 -0.0132  0.6383
  130POPC  C31517414   3.682   5.545   3.936 -0.7713  0.3532 -0.3943
  130POPC  H15X17415   3.773   5.599   3.902 -0.8672 -0.0352 -1.2807
  130POPC  H15Y17416   3.719   5.459   3.997 -0.1623  0.8175 -0.0926
  130POPC  C31617417   3.599   5.648   4.013 -0.9751  0.3757 -0.2626
  130POPC  H16X17418   3.510   5.603   4.063 -0.4924 -0.5955 -0.2642
  130POPC  H16Y17419   3.578   5.729   3.940  1.3783 -0.6185 -2.1407
  130POPC  H16Z17420   3.662   5.693   4.093  2.1817  1.1928 -2.9688
  131POPC     N17421   3.838   4.168   1.628  0.2384 -0.0015 -0.2604
  131POPC   C1217422   3.718   4.108   1.690  0.3404 -0.2672  0.1915
  131POPC  H12A17423   3.698   4.014   1.640  0.3863  0.3939 -1.1071
  131POPC  H12B17424   3.628   4.165   1.669 -0.4081 -2.0924 -1.8898
  131POPC   C1317425   3.955   4.079   1.651  0.0003 -0.2906 -0.3166
  131POPC  H13A17426   4.043   4.120   1.604  1.4322 -0.8265  1.7316
  131POPC  H13B17427   3.984   4.070   1.755 -0.7838  0.5407 -0.0124
  131POPC  H13C17428   3.929   3.977   1.627 -0.1264 -0.3409  0.0151
  131POPC   C1417429   3.808   4.200   1.488 -0.4520 -0.0832 -0.2944
  131POPC  H14A17430   3.769   4.117   1.430 -0.2663 -0.8853  0.7025
  131POPC  H14B17431   3.728   4.273   1.493 -1.3874 -1.1766  1.9521
  131POPC  H14C17432   3.886   4.254   1.436  0.4227 -1.3226 -0.3013
  131POPC   C1517433   3.860   4.296   1.702  0.6097  0.1816 -0.4817
  131POPC  H15A17434   3.769   4.354   1.700  0.2698 -0.3290 -0.1604
  131POPC  H15B17435   3.949   4.344   1.664  0.6102  1.0481  0.5585
  131POPC  H15C17436   3.871   4.271   1.807 -2.8262  0.8448  0.1621
  131POPC   C1117437   3.727   4.070   1.841  0.7657  0.1338  0.4495
  131POPC  H11A17438   3.793   3.986   1.872 -0.0169 -0.2740  1.0620
  131POPC  H11B17439   3.632   4.015   1.856  0.1700  0.8977 -0.4289
  131POPC     P17440   3.619   4.249   1.994 -0.1251 -0.2764 -0.3030
  131POPC   O1317441   3.514   4.283   1.890 -0.1480  0.3026 -0.0718
  131POPC   O1417442   3.676   4.366   2.063 -0.1590  0.3276  0.2675
  131POPC   O1217443   3.747   4.174   1.928  0.8395 -0.3284 -0.3722
  131POPC   O1117444   3.564   4.144   2.105  0.1274  0.2941  0.3945
  131POPC    C117445   3.641   4.110   2.217 -0.4011 -0.2710 -0.0015
  131POPC    HA17446   3.705   4.190   2.259 -0.3791  0.0330 -0.6201
  131POPC    HB17447   3.703   4.019   2.205  1.0782  0.5266  1.2746
  131POPC    C217448   3.548   4.079   2.338  0.9032  0.4278  0.2189
  131POPC    HS17449   3.485   3.994   2.304  2.8744 -0.4913 -1.3951
  131POPC   O2117450   3.471   4.193   2.381 -0.5101 -0.1937 -0.3320
  131POPC   C2117451   3.354   4.168   2.437  0.0345  0.1527 -0.2497
  131POPC   O2217452   3.303   4.059   2.450  0.3289  0.3962 -0.3105
  131POPC   C2217453   3.295   4.296   2.499  1.4447  0.5686  0.8378
  131POPC   H2R17454   3.200   4.278   2.553  0.5677 -2.4062 -1.4043
  131POPC   H2S17455   3.267   4.369   2.420 -0.0123  0.0465  0.8367
  131POPC    C317456   3.632   4.033   2.461  0.7952  0.1691  0.0527
  131POPC    HX17457   3.703   4.109   2.500  0.5414 -0.4652  1.8665
  131POPC    HY17458   3.698   3.957   2.412  0.2833 -1.4628  1.7711
  131POPC   O3117459   3.547   3.987   2.572  0.2216 -0.5089  0.4216
  131POPC   C3117460   3.609   3.893   2.640  0.1395 -0.0769 -0.6925
  131POPC   O3217461   3.720   3.852   2.617  0.0814  0.9971 -0.1328
  131POPC   C3217462   3.523   3.848   2.757  0.6053  0.0596 -0.0252
  131POPC   H2X17463   3.417   3.876   2.746  0.4666 -0.1614  0.6740
  131POPC   H2Y17464   3.554   3.901   2.850 -2.2820  3.1873 -0.6474
  131POPC   C2317465   3.386   4.370   2.604 -0.2106  0.3038 -0.2694
  131POPC   H3R17466   3.334   4.468   2.616 -3.0651 -1.1376 -0.0020
  131POPC   H3S17467   3.490   4.381   2.568  0.5736 -3.0079  0.6997
  131POPC   C2417468   3.376   4.307   2.749 -0.5525  0.5574  0.3130
  131POPC   H4R17469   3.430   4.210   2.749 -0.3547  0.6594  0.9936
  131POPC   H4S17470   3.271   4.288   2.780 -0.2514  0.7660  1.4989
  131POPC   C2517471   3.429   4.393   2.860 -0.3428 -0.3944 -0.1163
  131POPC   H5R17472   3.516   4.442   2.813 -0.6707  0.0034 -0.3199
  131POPC   H5S17473   3.460   4.328   2.944  0.3787 -0.7578 -0.6472
  131POPC   C2617474   3.343   4.509   2.906 -0.3665 -0.7453  0.1924
  131POPC   H6R17475   3.252   4.472   2.958 -1.0459  0.1314 -0.3328
  131POPC   H6S17476   3.317   4.571   2.817  0.5621  1.7518  1.5352
  131POPC   C2717477   3.408   4.610   2.999 -0.9418  0.7171 -0.0645
  131POPC   H7R17478   3.351   4.702   3.026 -0.1563  1.5548 -1.1506
  131POPC   H7S17479   3.497   4.647   2.944 -0.3653 -1.9315 -1.0417
  131POPC   C2817480   3.474   4.541   3.124  0.0267 -0.1026  0.1450
  131POPC   H8R17481   3.524   4.618   3.187 -0.8819 -0.2057  1.0120
  131POPC   H8S17482   3.557   4.475   3.090  1.6055  1.5211  0.7028
  131POPC   C2917483   3.372   4.474   3.214 -0.3516 -0.5684 -0.3365
  131POPC   H9117484   3.301   4.553   3.245  0.5155  0.2578 -0.4108
  131POPC  C21017485   3.353   4.350   3.243  0.8671 -0.4297  0.8567
  131POPC  H10117486   3.266   4.340   3.310 -0.2030  3.8001  0.3998
  131POPC  C21117487   3.418   4.219   3.215 -0.1808 -0.5960 -0.0990
  131POPC  H11R17488   3.488   4.186   3.295 -0.0332  1.0806  0.5171
  131POPC  H11S17489   3.495   4.252   3.142 -0.9445  0.8890 -0.2717
  131POPC  C21217490   3.333   4.109   3.148 -0.3994  0.7683  0.1632
  131POPC  H12R17491   3.286   4.148   3.055 -1.9724 -0.7458  0.2818
  131POPC  H12S17492   3.249   4.072   3.210 -1.3612 -0.6423 -1.8656
  131POPC  C21317493   3.419   3.989   3.092 -0.2159  1.2090 -0.2062
  131POPC  H13R17494   3.486   4.035   3.016 -0.5955  2.9915  0.5127
  131POPC  H13S17495   3.340   3.923   3.049 -1.2812  0.5607  2.5735
  131POPC  C21417496   3.501   3.902   3.190 -0.2726  0.8493 -0.9171
  131POPC  H14R17497   3.574   3.974   3.233 -0.4136  0.6587 -0.3490
  131POPC  H14S17498   3.557   3.822   3.137  1.3577  0.6559  0.9870
  131POPC  C21517499   3.419   3.825   3.290  0.2353  0.1668  0.6277
  131POPC  H15R17500   3.338   3.771   3.236  1.6633 -1.4231 -0.0209
  131POPC  H15S17501   3.369   3.901   3.354  1.1556 -0.0186  1.6044
  131POPC  C21617502   3.501   3.715   3.363 -0.4090  0.2764  0.7641
  131POPC  H16R17503   3.587   3.756   3.421 -0.3288 -0.4419  1.1759
  131POPC  H16S17504   3.556   3.655   3.288 -0.4662  0.7497  0.3411
  131POPC  C21717505   3.396   3.629   3.443 -0.8975  0.3898 -0.5804
  131POPC  H17R17506   3.334   3.566   3.375  1.7518  0.6907 -3.5407
  131POPC  H17S17507   3.326   3.705   3.483  1.0381  1.6277  0.6474
  131POPC  C21817508   3.455   3.543   3.551  0.0687  0.3286 -0.3299
  131POPC  H18R17509   3.468   3.599   3.647  1.0116  1.6253 -1.1828
  131POPC  H18S17510   3.552   3.502   3.517 -0.4713 -1.2120 -0.0760
  131POPC  H18T17511   3.393   3.457   3.585  0.4752  0.1566 -0.0215
  131POPC   C3317512   3.528   3.689   2.786  0.1626  0.1277 -0.7088
  131POPC   H3X17513   3.631   3.647   2.780  0.2561 -0.2178  1.9185
  131POPC   H3Y17514   3.463   3.636   2.713 -0.9150 -0.6789  0.7736
  131POPC   C3417515   3.470   3.646   2.923  0.0115 -0.1800  0.1867
  131POPC   H4X17516   3.375   3.697   2.952  0.4974 -0.6736  2.8338
  131POPC   H4Y17517   3.551   3.667   2.995  0.6495 -1.4389 -0.1479
  131POPC   C3517518   3.450   3.493   2.924  0.1286 -0.6472 -0.0263
  131POPC   H5X17519   3.540   3.445   2.881 -0.8341 -2.8196  0.2801
  131POPC   H5Y17520   3.365   3.453   2.866 -0.6669  0.3602  0.4130
  131POPC   C3617521   3.431   3.457   3.072 -0.3849 -0.1269  0.3110
  131POPC   H6X17522   3.344   3.502   3.125  0.6939  0.0198  2.0369
  131POPC   H6Y17523   3.523   3.484   3.128  0.6591 -2.5066 -0.1306
  131POPC   C3717524   3.416   3.307   3.094  0.2082 -0.5508  0.4193
  131POPC   H7X17525   3.491   3.240   3.047  0.8004  0.5823 -0.2954
  131POPC   H7Y17526   3.317   3.274   3.055  0.6496 -2.5940  0.9098
  131POPC   C3817527   3.415   3.278   3.244  0.2549  0.7846 -0.1299
  131POPC   H8X17528   3.340   3.347   3.289 -1.4762  0.8358 -2.8265
  131POPC   H8Y17529   3.512   3.306   3.291 -0.4393  0.7154  1.4047
  131POPC   C3917530   3.379   3.134   3.286  0.5362 -0.0507 -0.2607
  131POPC   H9X17531   3.456   3.068   3.242  2.3800 -0.1531  2.8720
  131POPC   H9Y17532   3.281   3.102   3.244  0.7389 -0.7887 -0.1839
  131POPC  C31017533   3.388   3.103   3.434 -0.2078 -0.2390  0.1088
  131POPC  H10X17534   3.303   3.156   3.483 -2.3524 -1.3072 -2.2448
  131POPC  H10Y17535   3.475   3.154   3.481 -2.1624  0.0941  3.7160
  131POPC  C31117536   3.383   2.952   3.470  0.1415  0.8809  0.0048
  131POPC  H11X17537   3.467   2.892   3.427 -0.6008  0.1977 -0.5272
  131POPC  H11Y17538   3.300   2.905   3.413  0.3823  1.5863 -0.9488
  131POPC  C31217539   3.357   2.923   3.619  0.3526 -0.0063 -0.3145
  131POPC  H12X17540   3.348   2.813   3.616 -0.9656  0.1052 -0.8407
  131POPC  H12Y17541   3.260   2.969   3.648 -1.9848 -3.1046 -2.5591
  131POPC  C31317542   3.476   2.937   3.713  0.5299  0.5564  0.6571
  131POPC  H13X17543   3.497   3.042   3.742 -2.3450  1.1160  0.9731
  131POPC  H13Y17544   3.568   2.902   3.662 -0.1782 -0.3954 -0.0060
  131POPC  C31417545   3.463   2.852   3.835  0.3926 -0.5557  0.4477
  131POPC  H14X17546   3.424   2.751   3.812 -0.3967 -0.3382  0.7879
  131POPC  H14Y17547   3.393   2.899   3.907 -0.5994 -2.2078  0.6171
  131POPC  C31517548   3.600   2.832   3.897 -0.4438  0.0499 -0.3913
  131POPC  H15X17549   3.640   2.929   3.932 -0.4754 -0.2669  0.5749
  131POPC  H15Y17550   3.680   2.806   3.824 -1.5061 -1.0076 -1.2123
  131POPC  C31617551   3.600   2.726   4.016  0.2060 -0.3880 -0.3465
  131POPC  H16X17552   3.549   2.774   4.102 -0.0549 -2.4643  0.7260
  131POPC  H16Y17553   3.704   2.701   4.046 -0.2333  0.1889  1.7746
  131POPC  H16Z17554   3.545   2.637   3.978  1.1384 -0.1316 -2.4680
  132POPC     N17555   4.959   7.875   1.530 -0.1414 -0.3468 -0.0739
  132POPC   C1217556   4.939   7.731   1.575  0.5468  0.3427 -0.7011
  132POPC  H12A17557   4.942   7.670   1.485 -1.2822 -2.1881  0.8064
  132POPC  H12B17558   4.844   7.707   1.620  0.8894 -1.3045 -0.7683
  132POPC   C1317559   5.095   7.896   1.481 -0.5078  0.3548  0.3744
  132POPC  H13A17560   5.122   7.802   1.437  0.4203  0.5524  0.4940
  132POPC  H13B17561   5.099   7.977   1.409  0.4420  0.6741  0.7715
  132POPC  H13C17562   5.167   7.925   1.556 -0.4997  0.2484  0.4072
  132POPC   C1417563   4.859   7.897   1.423  0.6841 -0.2629 -0.2934
  132POPC  H14A17564   4.855   7.820   1.347 -0.6439 -2.6941  2.0644
  132POPC  H14B17565   4.758   7.888   1.460  0.7946 -2.5469 -0.3706
  132POPC  H14C17566   4.873   7.987   1.365  0.1263 -0.1939 -0.3330
  132POPC   C1517567   4.927   7.966   1.643 -0.1160  0.2655  1.2769
  132POPC  H15A17568   4.822   7.964   1.668 -0.5524 -0.0966 -0.4611
  132POPC  H15B17569   4.942   8.069   1.613 -1.0771  1.0698  3.3682
  132POPC  H15C17570   4.993   7.938   1.723 -0.2224 -1.2507  0.8554
  132POPC   C1117571   5.054   7.673   1.662 -0.3767 -0.2351 -0.2512
  132POPC  H11A17572   5.154   7.693   1.617 -1.0564  1.4331 -1.1177
  132POPC  H11B17573   5.034   7.567   1.686 -1.7672  0.6810  3.3527
  132POPC     P17574   5.177   7.768   1.873 -0.2812  0.4711 -0.5070
  132POPC   O1317575   5.218   7.906   1.846  0.4716 -0.3800 -0.3665
  132POPC   O1417576   5.281   7.667   1.840 -0.4196 -0.2765 -0.0291
  132POPC   O1217577   5.042   7.739   1.792  0.0656  0.3493 -0.5110
  132POPC   O1117578   5.130   7.742   2.026  0.3670 -0.1689  0.1838
  132POPC    C117579   5.066   7.615   2.052 -0.1643 -0.1722  0.3231
  132POPC    HA17580   5.125   7.526   2.024 -0.6006 -0.4323  0.2254
  132POPC    HB17581   4.972   7.603   1.995  0.7491  1.2907 -1.6307
  132POPC    C217582   5.046   7.596   2.206  0.3343 -0.1840  0.7962
  132POPC    HS17583   4.980   7.511   2.232  0.0649 -0.3126 -0.2627
  132POPC   O2117584   4.992   7.721   2.264 -0.2020 -0.2954  0.0826
  132POPC   C2117585   4.867   7.747   2.236  1.3050 -0.5401 -0.6106
  132POPC   O2217586   4.800   7.689   2.155 -0.2027  0.5119  0.2086
  132POPC   C2217587   4.813   7.869   2.324  0.0579  0.0465  0.1745
  132POPC   H2R17588   4.703   7.852   2.326  0.4819 -3.5530 -0.3626
  132POPC   H2S17589   4.833   7.961   2.264  0.2908 -0.9868 -1.4044
  132POPC    C317590   5.179   7.553   2.280 -0.0416  0.3482  0.1332
  132POPC    HX17591   5.256   7.628   2.251 -0.9777  0.7990 -1.2596
  132POPC    HY17592   5.206   7.454   2.239  2.1952  0.1888  1.7906
  132POPC   O3117593   5.160   7.538   2.424  0.2471 -0.2925 -0.4450
  132POPC   C3117594   5.195   7.632   2.503 -0.7151 -0.6071  0.5220
  132POPC   O3217595   5.250   7.738   2.472  0.1401 -0.6121 -0.3537
  132POPC   C3217596   5.182   7.584   2.644 -0.7058  0.5158 -0.7712
  132POPC   H2X17597   5.243   7.493   2.665  2.1280  2.0873 -1.6413
  132POPC   H2Y17598   5.077   7.549   2.653 -0.5560  0.4483  1.1916
  132POPC   C2317599   4.871   7.864   2.461 -0.3832  0.7067 -0.7362
  132POPC   H3R17600   4.973   7.909   2.460 -0.0126 -0.1179 -0.2160
  132POPC   H3S17601   4.862   7.760   2.499 -0.4422  0.9577 -0.0534
  132POPC   C2417602   4.792   7.947   2.564 -0.0201 -0.2942  0.8700
  132POPC   H4R17603   4.689   7.911   2.581  0.2766 -1.5839  0.1123
  132POPC   H4S17604   4.785   8.047   2.516  1.3390 -0.4874  0.2215
  132POPC   C2517605   4.857   7.957   2.702 -0.2077  0.0711  0.9524
  132POPC   H5R17606   4.954   8.013   2.700  0.4927 -1.1316  0.4546
  132POPC   H5S17607   4.887   7.852   2.719  1.7059 -0.1482 -2.6806
  132POPC   C2617608   4.769   8.014   2.806 -0.5400  0.1891 -0.2673
  132POPC   H6R17609   4.669   7.965   2.806 -1.0490  1.1980  0.2986
  132POPC   H6S17610   4.739   8.119   2.785 -0.3847  0.4953  0.9845
  132POPC   C2717611   4.839   8.015   2.942 -0.8451 -0.6988  0.1134
  132POPC   H7R17612   4.927   8.082   2.932 -0.4638 -0.6842  2.8365
  132POPC   H7S17613   4.872   7.911   2.962  0.2670 -0.2809  0.5225
  132POPC   C2817614   4.755   8.079   3.053 -0.4357  0.1096 -0.1401
  132POPC   H8R17615   4.650   8.050   3.033 -0.4823 -0.2350  0.5903
  132POPC   H8S17616   4.757   8.190   3.046  0.0714  0.1241  0.1776
  132POPC   C2917617   4.781   8.022   3.188  0.1500 -0.1243 -0.0077
  132POPC   H9117618   4.763   7.916   3.210 -0.8070 -0.3387 -1.7043
  132POPC  C21017619   4.842   8.097   3.282  0.2970  0.0762  0.7040
  132POPC  H10117620   4.839   8.058   3.384  1.4969 -3.1601 -0.3744
  132POPC  C21117621   4.892   8.239   3.263  0.3467  0.5164 -0.1260
  132POPC  H11R17622   4.814   8.315   3.286  0.1011  0.3461 -0.4021
  132POPC  H11S17623   4.915   8.260   3.156 -2.6082 -0.5272 -1.0696
  132POPC  C21217624   5.016   8.259   3.350 -0.3072 -0.4407 -0.6098
  132POPC  H12R17625   5.075   8.347   3.319 -0.7064 -0.0919 -0.3963
  132POPC  H12S17626   5.078   8.168   3.335  1.2447  0.3302  0.8198
  132POPC  C21317627   4.983   8.259   3.505  0.1296 -0.3122  0.6332
  132POPC  H13R17628   5.073   8.303   3.552 -0.1613  0.5712  0.3724
  132POPC  H13S17629   4.976   8.154   3.543 -0.7957 -0.0788  1.1547
  132POPC  C21417630   4.862   8.348   3.547 -1.2817 -0.5193  0.4871
  132POPC  H14R17631   4.763   8.315   3.508 -0.6620 -1.0705 -0.6917
  132POPC  H14S17632   4.870   8.446   3.495  1.0480  0.1519  1.9865
  132POPC  C21517633   4.856   8.393   3.689 -0.2482  0.9294 -0.1384
  132POPC  H15R17634   4.952   8.445   3.708 -0.4018  0.2285  3.1535
  132POPC  H15S17635   4.855   8.309   3.762  1.4653 -0.7150 -1.8731
  132POPC  C21617636   4.741   8.491   3.710  0.1647 -0.0291 -0.4892
  132POPC  H16R17637   4.648   8.469   3.654 -0.4020 -0.9766  0.7915
  132POPC  H16S17638   4.776   8.592   3.679 -0.1400  0.7091  1.4635
  132POPC  C21717639   4.695   8.504   3.859 -0.6957  0.1765 -0.4341
  132POPC  H17R17640   4.636   8.413   3.881 -0.1094 -0.0475  0.2567
  132POPC  H17S17641   4.621   8.583   3.885 -1.6812 -1.6026  2.6069
  132POPC  C21817642   4.800   8.518   3.964  0.1479 -0.3112  0.0699
  132POPC  H18R17643   4.755   8.538   4.064 -0.5134  0.1345 -0.3115
  132POPC  H18S17644   4.864   8.607   3.943  0.7685 -0.9640 -0.8683
  132POPC  H18T17645   4.862   8.426   3.973  0.2017 -0.1656  1.3544
  132POPC   C3317646   5.206   7.688   2.759  0.4327  0.4345 -0.2562
  132POPC   H3X17647   5.154   7.780   2.724  0.8476 -0.1630 -2.5898
  132POPC   H3Y17648   5.314   7.714   2.768  0.7757 -1.4246  1.8800
  132POPC   C3417649   5.158   7.645   2.903  0.7094 -0.6697  0.8254
  132POPC   H4X17650   5.214   7.555   2.937  0.0103 -2.1631 -1.7604
  132POPC   H4Y17651   5.050   7.623   2.893  0.5043  0.9978 -1.1820
  132POPC   C3517652   5.167   7.769   2.998 -0.6692 -0.0475  0.6733
  132POPC   H5X17653   5.152   7.862   2.939 -0.3294 -0.6127 -0.3353
  132POPC   H5Y17654   5.276   7.776   3.018 -0.3606  0.1986 -0.8882
  132POPC   C3617655   5.091   7.758   3.131 -0.1980 -0.2904 -0.3618
  132POPC   H6X17656   5.107   7.655   3.170  0.8671  0.4354  1.1903
  132POPC   H6Y17657   4.983   7.775   3.113 -0.1679  1.0061  0.5507
  132POPC   C3717658   5.148   7.858   3.233  0.3709  0.0512  0.4005
  132POPC   H7X17659   5.094   7.954   3.223  0.6844  0.1162 -0.8881
  132POPC   H7Y17660   5.257   7.869   3.212  0.9332  2.0281  3.6883
  132POPC   C3817661   5.132   7.810   3.380 -0.5051 -0.5109 -0.0053
  132POPC   H8X17662   5.157   7.900   3.440 -0.2521  0.5196 -1.6201
  132POPC   H8Y17663   5.214   7.740   3.409 -0.2594 -0.0932  0.3127
  132POPC   C3917664   4.996   7.757   3.428  0.2223 -0.8501  0.2213
  132POPC   H9X17665   4.954   7.680   3.359 -3.8646  1.2438  0.0351
  132POPC   H9Y17666   4.915   7.833   3.430  1.0797  0.0935 -0.3249
  132POPC  C31017667   5.006   7.697   3.568 -0.5420 -0.5343  0.3929
  132POPC  H10X17668   5.093   7.628   3.565 -0.5495 -0.5046 -1.0922
  132POPC  H10Y17669   4.914   7.635   3.578 -0.7141 -0.0213  2.3486
  132POPC  C31117670   5.026   7.810   3.676 -0.3412  0.4835  0.0637
  132POPC  H11X17671   4.927   7.860   3.670  0.6800  2.7889  1.2296
  132POPC  H11Y17672   5.105   7.882   3.645  1.6611 -1.7011 -0.1809
  132POPC  C31217673   5.045   7.759   3.823  0.1430  0.2266  0.8816
  132POPC  H12X17674   5.028   7.851   3.883 -3.1287  3.6055 -4.4414
  132POPC  H12Y17675   5.150   7.723   3.831  1.1151  1.2350 -3.9602
  132POPC  C31317676   4.942   7.658   3.861  0.4959  0.5532 -0.3038
  132POPC  H13X17677   4.974   7.617   3.960  0.8275  2.8297  0.6063
  132POPC  H13Y17678   4.944   7.568   3.796 -0.0713 -0.5020  1.0782
  132POPC  C31417679   4.807   7.704   3.862  0.3264 -0.2808  0.0140
  132POPC  H14X17680   4.737   7.620   3.881 -1.0789  0.0458 -3.1822
  132POPC  H14Y17681   4.771   7.767   3.778 -0.3930 -1.2435 -0.4257
  132POPC  C31517682   4.778   7.797   3.980  0.1136 -0.5006  0.4365
  132POPC  H15X17683   4.681   7.842   3.950  1.8873  2.2539 -1.5472
  132POPC  H15Y17684   4.849   7.881   3.993 -0.9743  0.5229 -0.0754
  132POPC  C31617685   4.752   7.732   4.117 -0.2702  0.3915  0.6141
  132POPC  H16X17686   4.848   7.724   4.172  1.2875 -0.0756 -1.9825
  132POPC  H16Y17687   4.716   7.628   4.103 -0.6350  0.4334  1.2163
  132POPC  H16Z17688   4.682   7.791   4.179 -1.8629 -0.5574 -0.2366
  133POPC     N17689   0.244   3.776   1.769 -1.0217  0.1004 -0.0053
  133POPC   C1217690   0.324   3.667   1.841 -0.1386  0.3935  0.1846
  133POPC  H12A17691   0.270   3.621   1.922 -0.2613 -0.0758 -0.1581
  133POPC  H12B17692   0.409   3.716   1.886  0.8678 -1.2610  0.1691
  133POPC   C1317693   0.181   3.871   1.861  0.1919 -0.1633  0.2344
  133POPC  H13A17694   0.076   3.852   1.879  0.4057 -2.7231 -0.6984
  133POPC  H13B17695   0.232   3.878   1.956  0.2125  2.0790  0.1178
  133POPC  H13C17696   0.184   3.972   1.824  1.1045  0.1275  1.0857
  133POPC   C1417697   0.345   3.846   1.683 -0.3467 -0.4580  0.5438
  133POPC  H14A17698   0.412   3.902   1.746 -1.2333  0.8051  0.4197
  133POPC  H14B17699   0.397   3.783   1.613 -0.7303 -0.1826  0.0028
  133POPC  H14C17700   0.308   3.933   1.630 -0.7570  0.3059  2.0289
  133POPC   C1517701   0.133   3.704   1.691  0.4369 -0.3656 -0.4578
  133POPC  H15A17702   0.074   3.782   1.645  0.6358 -0.9631 -1.7484
  133POPC  H15B17703   0.080   3.635   1.755 -1.5959  1.5865  0.0822
  133POPC  H15C17704   0.175   3.649   1.609 -2.5526  0.9651 -3.0867
  133POPC   C1117705   0.375   3.540   1.759  0.0784  0.0436 -0.2904
  133POPC  H11A17706   0.470   3.503   1.804 -0.9657 -1.6669  0.5830
  133POPC  H11B17707   0.394   3.577   1.656 -1.4557  0.2698 -0.5191
  133POPC     P17708   0.214   3.365   1.864 -0.1009 -0.0849  0.3792
  133POPC   O1317709   0.266   3.226   1.882 -0.0984 -0.0596  0.0970
  133POPC   O1417710   0.074   3.376   1.844  0.1431  0.1389 -1.0530
  133POPC   O1217711   0.282   3.428   1.744  0.5460  0.2011  0.4460
  133POPC   O1117712   0.252   3.447   1.995 -0.4771  0.0320  0.1398
  133POPC    C117713   0.369   3.405   2.072 -0.4261  0.6804 -0.3391
  133POPC    HA17714   0.424   3.500   2.089  0.6109 -0.1970  1.4384
  133POPC    HB17715   0.429   3.320   2.035 -2.3553 -1.0819  0.3352
  133POPC    C217716   0.318   3.359   2.206  0.5050 -0.1629 -0.2332
  133POPC    HS17717   0.294   3.251   2.210  1.1240 -0.2707  3.3124
  133POPC   O2117718   0.195   3.430   2.243 -0.2576 -0.1138  0.7306
  133POPC   C2117719   0.142   3.407   2.357  0.1697 -0.4777 -0.1346
  133POPC   O2217720   0.162   3.310   2.429 -0.4164  0.8097 -0.2356
  133POPC   C2217721   0.038   3.523   2.389 -1.0369  1.2241 -0.4550
  133POPC   H2R17722  -0.020   3.543   2.296 -2.2560  0.9829  0.2250
  133POPC   H2S17723   0.097   3.611   2.421 -0.1751 -0.0894  1.8194
  133POPC    C317724   0.432   3.377   2.306 -0.2364 -0.2890  0.1421
  133POPC    HX17725   0.527   3.330   2.270 -1.3816 -0.0809 -3.5393
  133POPC    HY17726   0.405   3.331   2.404  0.0056 -1.5543 -0.3622
  133POPC   O3117727   0.454   3.521   2.318  0.0011  0.0830 -1.3703
  133POPC   C3117728   0.530   3.553   2.423  1.1366 -0.5287 -0.0653
  133POPC   O3217729   0.586   3.470   2.488 -0.2959 -0.3144 -0.0212
  133POPC   C3217730   0.534   3.707   2.458 -0.1167  0.3263  0.6823
  133POPC   H2X17731   0.592   3.758   2.378 -0.2044  0.1847  0.5286
  133POPC   H2Y17732   0.598   3.713   2.548 -1.5626 -0.3823  1.7987
  133POPC   C2317733  -0.070   3.491   2.507 -0.6460  0.5486 -0.1007
  133POPC   H3R17734  -0.115   3.391   2.488 -1.0565  0.6462  0.3393
  133POPC   H3S17735  -0.144   3.573   2.505 -0.5321  0.6413 -0.7553
  133POPC   C2417736   0.001   3.490   2.642  0.3995  0.2465 -0.1544
  133POPC   H4R17737   0.048   3.589   2.661  0.5521  0.0766  0.3678
  133POPC   H4S17738   0.074   3.408   2.658  1.1677  1.3348  2.4171
  133POPC   C2517739  -0.100   3.459   2.759 -0.4168 -0.5429 -0.1226
  133POPC   H5R17740  -0.155   3.364   2.743  0.3887 -0.7677 -1.9225
  133POPC   H5S17741  -0.175   3.541   2.760 -2.1757 -2.0850 -0.9984
  133POPC   C2617742  -0.026   3.460   2.896  0.5808  0.2708  0.3507
  133POPC   H6R17743   0.054   3.537   2.895 -0.7397  1.7119 -1.4344
  133POPC   H6S17744   0.013   3.357   2.911 -2.5788 -0.7598  2.5066
  133POPC   C2717745  -0.135   3.472   3.011 -0.0617 -0.0687  0.6692
  133POPC   H7R17746  -0.216   3.396   3.009  0.8827 -1.4241  4.3941
  133POPC   H7S17747  -0.190   3.568   3.008 -1.4102 -0.7531  2.0639
  133POPC   C2817748  -0.061   3.453   3.147 -0.0073  0.1469  0.5204
  133POPC   H8R17749   0.024   3.523   3.162 -0.0737  0.6473 -1.2095
  133POPC   H8S17750  -0.026   3.349   3.161  0.2128 -0.1975 -1.9979
  133POPC   C2917751  -0.160   3.461   3.257  0.3422 -1.0103 -0.0945
  133POPC   H9117752  -0.230   3.377   3.256 -0.8425 -0.0538 -0.4690
  133POPC  C21017753  -0.162   3.559   3.350 -0.2713  0.1515 -0.4760
  133POPC  H10117754  -0.231   3.553   3.436  0.3933  1.9535  0.2345
  133POPC  C21117755  -0.064   3.678   3.359  0.2429 -0.2075  0.4134
  133POPC  H11R17756  -0.118   3.773   3.377  0.1249  0.4422 -2.7547
  133POPC  H11S17757  -0.015   3.693   3.261 -0.3169 -0.8923  0.0134
  133POPC  C21217758   0.039   3.670   3.471 -0.0165  0.4419  0.2605
  133POPC  H12R17759   0.108   3.590   3.437 -0.2498  0.9634 -1.5271
  133POPC  H12S17760  -0.018   3.641   3.562 -1.4934 -1.4666 -1.1947
  133POPC  C21317761   0.121   3.794   3.495 -0.5118 -0.2621  0.3888
  133POPC  H13R17762   0.050   3.879   3.509  0.4022  0.0935  3.7456
  133POPC  H13S17763   0.179   3.817   3.403 -1.1765 -2.5105 -0.6634
  133POPC  C21417764   0.201   3.793   3.618 -0.3070  0.3061 -0.3838
  133POPC  H14R17765   0.291   3.728   3.618 -0.2319  0.3894  0.7723
  133POPC  H14S17766   0.146   3.750   3.705  1.5547 -1.0652  0.1715
  133POPC  C21517767   0.249   3.934   3.654  0.0344 -0.1305  0.0407
  133POPC  H15R17768   0.173   4.015   3.651  1.7676  1.8303  3.2710
  133POPC  H15S17769   0.331   3.969   3.588  3.2480  0.6782  4.0139
  133POPC  C21617770   0.308   3.952   3.797  0.2196 -0.2841  0.5184
  133POPC  H16R17771   0.404   3.896   3.796  0.5109  0.1962  0.9913
  133POPC  H16S17772   0.246   3.896   3.871  1.7416 -2.0023  0.5778
  133POPC  C21717773   0.338   4.101   3.836 -0.3149 -0.0684 -0.1179
  133POPC  H17R17774   0.411   4.133   3.758 -0.6520  0.1673 -0.3397
  133POPC  H17S17775   0.390   4.108   3.934 -2.2067 -0.2164  0.9528
  133POPC  C21817776   0.207   4.178   3.846 -0.7004  0.3256  0.6136
  133POPC  H18R17777   0.141   4.118   3.912 -0.0181  0.9543  1.9109
  133POPC  H18S17778   0.163   4.176   3.744  0.8574 -1.7464 -0.0862
  133POPC  H18T17779   0.208   4.274   3.902  0.0737 -0.8264  2.7260
  133POPC   C3317780   0.397   3.774   2.475 -0.8596 -0.1074  0.6539
  133POPC   H3X17781   0.351   3.746   2.378  3.3757 -0.1127 -1.6004
  133POPC   H3Y17782   0.390   3.885   2.483 -1.2881  0.1128 -1.8788
  133POPC   C3417783   0.324   3.712   2.587 -0.0529 -0.1703 -0.5050
  133POPC   H4X17784   0.319   3.602   2.574  0.4981 -0.1736 -0.6990
  133POPC   H4Y17785   0.221   3.755   2.591 -0.4576 -1.1625 -0.0447
  133POPC   C3517786   0.373   3.741   2.731  0.1617  0.2560 -0.1246
  133POPC   H5X17787   0.374   3.850   2.753  2.3932  0.3856 -0.6387
  133POPC   H5Y17788   0.474   3.697   2.745 -0.2540 -0.4402  0.7360
  133POPC   C3617789   0.280   3.676   2.834  0.2878 -0.1873  0.0606
  133POPC   H6X17790   0.291   3.568   2.812 -2.6889 -0.5159 -0.1833
  133POPC   H6Y17791   0.177   3.703   2.805  1.0476  1.4803 -1.2593
  133POPC   C3717792   0.303   3.713   2.980 -0.1005 -0.0076 -0.3742
  133POPC   H7X17793   0.405   3.680   3.011 -1.5753 -3.2828  1.5932
  133POPC   H7Y17794   0.235   3.654   3.045 -2.3449  0.5563 -2.0909
  133POPC   C3817795   0.282   3.865   3.013  0.6260  0.4012 -0.1938
  133POPC   H8X17796   0.360   3.923   2.959  1.3143 -0.7006 -0.4160
  133POPC   H8Y17797   0.288   3.875   3.124 -1.0241 -2.8100  0.2897
  133POPC   C3917798   0.145   3.911   2.976 -0.4413 -0.4518 -0.4099
  133POPC   H9X17799   0.074   3.836   3.016  1.5783 -1.3532  1.6852
  133POPC   H9Y17800   0.133   3.917   2.865  0.2573 -1.4990 -0.5568
  133POPC  C31017801   0.116   4.065   3.016  0.0425  0.7089 -0.4763
  133POPC  H10X17802   0.026   4.109   2.968 -0.0235  1.4089  0.2676
  133POPC  H10Y17803   0.205   4.104   2.962 -0.3858  0.0287 -1.6996
  133POPC  C31117804   0.100   4.088   3.167  0.0106 -0.4694  0.4227
  133POPC  H11X17805   0.199   4.077   3.216 -0.0065 -2.7677  0.0440
  133POPC  H11Y17806   0.039   4.009   3.216  0.7120 -0.4863  1.2999
  133POPC  C31217807   0.045   4.230   3.207  0.2264  0.6711  0.1652
  133POPC  H12X17808  -0.053   4.245   3.156  0.4163  0.6786 -0.1978
  133POPC  H12Y17809   0.109   4.308   3.161 -0.3252  0.9844 -0.0821
  133POPC  C31317810   0.027   4.250   3.354  0.6673 -0.0146 -0.4826
  133POPC  H13X17811  -0.060   4.190   3.385 -0.2480  1.4763 -0.0470
  133POPC  H13Y17812  -0.005   4.355   3.373 -0.9509 -0.7525  1.1353
  133POPC  C31417813   0.148   4.223   3.438 -0.5466 -0.4219  0.4975
  133POPC  H14X17814   0.178   4.116   3.435 -1.4634 -0.6658 -0.6378
  133POPC  H14Y17815   0.125   4.256   3.542 -1.9208 -1.4686  0.5417
  133POPC  C31517816   0.273   4.297   3.391  0.5893 -1.3840  0.7285
  133POPC  H15X17817   0.249   4.405   3.379  0.3097 -1.7544 -3.7850
  133POPC  H15Y17818   0.321   4.263   3.296 -1.0815 -0.6886 -0.4144
  133POPC  C31617819   0.377   4.295   3.505 -0.2753 -0.7847 -0.0230
  133POPC  H16X17820   0.403   4.188   3.522 -1.1336 -0.9153  0.5400
  133POPC  H16Y17821   0.345   4.334   3.605  0.5871 -1.8960  0.7151
  133POPC  H16Z17822   0.465   4.352   3.469 -1.8924  0.1112 -2.8152
  134POPC     N17823   3.899   4.854   1.644 -0.4354 -0.0286 -0.1308
  134POPC   C1217824   3.859   4.920   1.771 -0.1026 -0.1418 -0.2398
  134POPC  H12A17825   3.823   4.845   1.840  0.9241 -0.4877 -0.0530
  134POPC  H12B17826   3.772   4.974   1.737  0.8383  0.9953 -0.9371
  134POPC   C1317827   3.984   4.728   1.671  0.0090 -0.0358 -0.0722
  134POPC  H13A17828   4.031   4.688   1.582  1.4693 -0.5482  0.8845
  134POPC  H13B17829   4.067   4.759   1.733  1.2139  0.4809 -1.8677
  134POPC  H13C17830   3.928   4.652   1.723 -1.6456  0.8349 -0.5405
  134POPC   C1417831   3.777   4.819   1.559  0.1210  0.1171  0.7131
  134POPC  H14A17832   3.809   4.767   1.469 -1.6326 -2.1272  1.2942
  134POPC  H14B17833   3.719   4.748   1.617  0.4702  0.2386  1.2202
  134POPC  H14C17834   3.719   4.908   1.541  1.7997  1.4931  1.8178
  134POPC   C1517835   3.996   4.944   1.562 -0.1790 -0.9516  0.3658
  134POPC  H15A17836   3.990   4.937   1.454 -2.9976  2.9969  0.0385
  134POPC  H15B17837   4.099   4.928   1.592  1.4967 -0.3443 -4.2268
  134POPC  H15C17838   3.965   5.045   1.583 -2.0261 -1.4882  0.3534
  134POPC   C1117839   3.959   5.007   1.848  0.2004  0.0572 -0.3906
  134POPC  H11A17840   3.900   5.025   1.941 -1.0597 -0.5400 -1.0533
  134POPC  H11B17841   3.970   5.102   1.792 -1.6968  0.4229 -0.1964
  134POPC     P17842   4.221   5.029   1.890 -0.0880  0.1316 -0.0397
  134POPC   O1317843   4.230   5.129   1.786 -0.3163 -0.1743 -0.7771
  134POPC   O1417844   4.344   4.941   1.892 -0.0917  0.3383  0.4712
  134POPC   O1217845   4.083   4.946   1.878 -0.0774  0.9792 -0.1371
  134POPC   O1117846   4.217   5.105   2.028  0.3021 -0.1847  0.1582
  134POPC    C117847   4.132   5.220   2.051  0.0976  0.5344  0.3569
  134POPC    HA17848   4.030   5.179   2.070 -0.3812  1.3995 -0.2716
  134POPC    HB17849   4.133   5.299   1.974  1.0514  0.5704  0.3947
  134POPC    C217850   4.166   5.287   2.184 -0.8045  0.0816 -0.4961
  134POPC    HS17851   4.269   5.322   2.166 -1.0672  1.4876  0.6288
  134POPC   O2117852   4.155   5.182   2.285  0.0832 -0.2023  0.2362
  134POPC   C2117853   4.237   5.188   2.382 -0.5262 -0.1606 -0.4237
  134POPC   O2217854   4.333   5.265   2.393 -0.2451  0.4591  0.2703
  134POPC   C2217855   4.205   5.086   2.491  0.3439  0.2410 -0.0189
  134POPC   H2R17856   4.123   5.021   2.457  0.2272  0.6699 -0.5748
  134POPC   H2S17857   4.176   5.131   2.589  0.9467  0.8083 -0.0924
  134POPC    C317858   4.084   5.418   2.216 -0.0990 -0.4631 -0.2054
  134POPC    HX17859   3.975   5.401   2.210 -0.2846  0.9673 -1.2785
  134POPC    HY17860   4.111   5.488   2.134 -1.8005  0.9868  0.3994
  134POPC   O3117861   4.120   5.466   2.348  0.4227  0.1766 -0.3964
  134POPC   C3117862   4.186   5.575   2.355  0.2227  0.2876  0.2622
  134POPC   O3217863   4.236   5.637   2.262  0.0258 -0.0732 -0.0225
  134POPC   C3217864   4.177   5.613   2.503  0.3738  0.4100  0.8402
  134POPC   H2X17865   4.214   5.534   2.572  0.9867  1.1149  1.3401
  134POPC   H2Y17866   4.068   5.615   2.526  0.2396  0.6161  0.1941
  134POPC   C2317867   4.321   4.993   2.514  0.3724 -0.0358  0.8451
  134POPC   H3R17868   4.405   5.035   2.574  1.3810 -1.1389  0.2668
  134POPC   H3S17869   4.350   4.953   2.414 -1.3261 -0.8079  0.6343
  134POPC   C2417870   4.274   4.872   2.597 -0.3950  0.1196  0.0094
  134POPC   H4R17871   4.358   4.809   2.634  1.2903  1.6072 -1.1375
  134POPC   H4S17872   4.212   4.804   2.534  1.4252 -2.1748  0.5662
  134POPC   C2517873   4.190   4.908   2.713  0.6363 -0.3902  0.0676
  134POPC   H5R17874   4.083   4.935   2.704  1.0929  1.2241 -0.7155
  134POPC   H5S17875   4.243   4.979   2.780  3.2491 -1.8599 -0.2752
  134POPC   C2617876   4.194   4.778   2.798 -0.2430  0.7946 -0.0465
  134POPC   H6R17877   4.298   4.748   2.822  0.3994  2.0722 -1.1000
  134POPC   H6S17878   4.153   4.696   2.735 -0.4023 -1.1788  2.4188
  134POPC   C2717879   4.119   4.784   2.935 -0.0129 -0.1184  1.0728
  134POPC   H7R17880   4.011   4.783   2.910  0.4083  0.3401 -0.9607
  134POPC   H7S17881   4.124   4.891   2.966 -0.4880  0.5444 -0.9752
  134POPC   C2817882   4.158   4.683   3.042  0.0325  0.1826 -0.4061
  134POPC   H8R17883   4.072   4.689   3.112 -0.1456 -1.5470 -0.4298
  134POPC   H8S17884   4.243   4.713   3.107 -0.0058  2.2516 -1.2435
  134POPC   C2917885   4.175   4.546   2.984 -0.3971  0.4357  0.0972
  134POPC   H9117886   4.230   4.551   2.889  0.1065  1.8252  0.4384
  134POPC  C21017887   4.113   4.437   3.031  0.1417  0.0841 -0.7486
  134POPC  H10117888   4.129   4.339   2.984 -2.9151 -2.2146  2.5281
  134POPC  C21117889   4.033   4.429   3.154  0.0201  0.4480 -0.4299
  134POPC  H11R17890   4.080   4.496   3.229  0.0608  0.6156 -0.6057
  134POPC  H11S17891   4.045   4.327   3.198  0.8374  1.2928  1.4445
  134POPC  C21217892   3.883   4.462   3.151  0.1693  0.2711  0.2940
  134POPC  H12R17893   3.829   4.395   3.081  0.5903 -0.8370  1.0086
  134POPC  H12S17894   3.874   4.566   3.112 -0.5722  0.0168 -0.2293
  134POPC  C21317895   3.814   4.469   3.292  0.3845  0.5415 -0.4615
  134POPC  H13R17896   3.720   4.527   3.287  1.1247  1.7563 -0.9067
  134POPC  H13S17897   3.871   4.527   3.368 -0.5125  1.6944 -0.6317
  134POPC  C21417898   3.783   4.332   3.352  0.0949  0.2920 -0.5110
  134POPC  H14R17899   3.881   4.280   3.361  0.0350 -0.2423 -2.3955
  134POPC  H14S17900   3.734   4.265   3.278 -0.1113  0.8694 -0.9034
  134POPC  C21517901   3.717   4.338   3.493 -0.5678  0.2189  0.2542
  134POPC  H15R17902   3.626   4.397   3.467  0.8992  2.6076  0.2474
  134POPC  H15S17903   3.773   4.396   3.569 -1.3711  0.3997  0.7274
  134POPC  C21617904   3.672   4.202   3.558 -0.2677 -0.5557 -0.0505
  134POPC  H16R17905   3.764   4.147   3.586 -0.6262 -1.3858 -0.4412
  134POPC  H16S17906   3.617   4.138   3.485 -0.8331 -0.1101 -0.0176
  134POPC  C21717907   3.571   4.216   3.680  0.9028  0.4554 -0.6177
  134POPC  H17R17908   3.474   4.252   3.642  0.3549  1.5599  1.6647
  134POPC  H17S17909   3.608   4.289   3.755  0.8452 -0.9727  0.8560
  134POPC  C21817910   3.563   4.079   3.760  0.1286 -0.0465 -0.1010
  134POPC  H18R17911   3.544   3.997   3.689 -0.8634 -0.6217  0.8012
  134POPC  H18S17912   3.487   4.083   3.841 -0.5326 -0.4477 -0.6957
  134POPC  H18T17913   3.661   4.064   3.811 -0.3567  0.8103  1.1541
  134POPC   C3317914   4.252   5.737   2.536  0.2002 -0.8510 -0.0514
  134POPC   H3X17915   4.225   5.830   2.481 -1.0898 -2.4560 -2.3109
  134POPC   H3Y17916   4.358   5.711   2.513 -0.5646 -1.6818 -3.2295
  134POPC   C3417917   4.239   5.770   2.690  0.0518 -0.2133  0.0391
  134POPC   H4X17918   4.317   5.845   2.717 -0.4226 -0.2014  1.4930
  134POPC   H4Y17919   4.267   5.676   2.742  0.2948 -1.2211 -1.8430
  134POPC   C3517920   4.096   5.828   2.726 -0.1503 -0.1936 -0.0145
  134POPC   H5X17921   4.014   5.766   2.684 -1.1517  0.4155  0.9775
  134POPC   H5Y17922   4.091   5.927   2.675  0.1573  0.6350  1.4992
  134POPC   C3617923   4.078   5.843   2.872 -0.2584  0.1445 -0.4291
  134POPC   H6X17924   3.989   5.906   2.895  0.0638  0.9222 -1.2589
  134POPC   H6Y17925   4.162   5.900   2.917 -0.6262  2.0767 -2.0531
  134POPC   C3717926   4.069   5.710   2.949 -0.8399  0.0569  0.5367
  134POPC   H7X17927   4.148   5.639   2.916 -0.8818  0.7200 -1.0710
  134POPC   H7Y17928   3.972   5.658   2.939 -0.3634 -1.3625  2.5780
  134POPC   C3817929   4.097   5.723   3.099 -0.3574 -0.1714  0.6985
  134POPC   H8X17930   4.201   5.753   3.122  0.0547 -0.3859 -0.7360
  134POPC   H8Y17931   4.089   5.624   3.148 -0.6549  0.5137  2.0581
  134POPC   C3917932   4.008   5.823   3.174  0.2065 -0.2829 -0.1357
  134POPC   H9X17933   3.901   5.791   3.171 -0.1505  0.8501 -0.1919
  134POPC   H9Y17934   4.019   5.925   3.132 -0.8179  0.1566  0.6262
  134POPC  C31017935   4.045   5.827   3.321 -0.3049  0.0607  0.8940
  134POPC  H10X17936   4.143   5.874   3.343 -1.2088  1.6719  1.6587
  134POPC  H10Y17937   4.050   5.720   3.352  2.0318  0.3242  1.5770
  134POPC  C31117938   3.942   5.893   3.417 -0.2478  0.5298  0.3753
  134POPC  H11X17939   3.842   5.845   3.408 -0.8200  1.5872  0.9643
  134POPC  H11Y17940   3.934   6.001   3.394  1.3427  0.9782  1.7679
  134POPC  C31217941   3.979   5.889   3.568 -0.1092  0.0104 -0.1244
  134POPC  H12X17942   4.079   5.937   3.577 -0.7995  2.3731 -3.2836
  134POPC  H12Y17943   3.976   5.788   3.613  0.6731 -0.1369 -0.3938
  134POPC  C31317944   3.898   5.976   3.664  0.4470 -0.6041  0.0108
  134POPC  H13X17945   3.791   5.949   3.650 -0.1479  1.0732  1.0102
  134POPC  H13Y17946   3.914   6.078   3.622 -2.1911 -0.2379 -0.2657
  134POPC  C31417947   3.927   5.969   3.816 -0.6311 -0.1090 -0.5809
  134POPC  H14X17948   4.036   5.975   3.837 -1.2368 -0.2498  3.3460
  134POPC  H14Y17949   3.892   5.872   3.859 -1.5079 -0.0692 -1.1797
  134POPC  C31517950   3.866   6.090   3.889  1.2193  0.0520  0.2288
  134POPC  H15X17951   3.911   6.188   3.861 -0.9729  1.3190  0.8736
  134POPC  H15Y17952   3.893   6.081   3.997  0.2631 -2.1871  0.3426
  134POPC  C31617953   3.716   6.094   3.885 -1.0197  0.5589  0.5785
  134POPC  H16X17954   3.681   6.108   3.781 -0.9956  1.1941  0.6520
  134POPC  H16Y17955   3.687   6.186   3.940 -1.3530 -0.7293  2.6874
  134POPC  H16Z17956   3.664   6.010   3.935  0.2168 -0.9982 -0.6437
  135POPC     N17957   2.331   4.684   1.757 -0.2636  0.0489  0.2336
  135POPC   C1217958   2.208   4.653   1.834  0.6584 -0.5121 -0.5153
  135POPC  H12A17959   2.209   4.546   1.852  2.0212 -0.0346  3.2226
  135POPC  H12B17960   2.124   4.676   1.770 -1.9547 -2.6713  1.8552
  135POPC   C1317961   2.351   4.579   1.650 -0.3450  0.7481  0.2659
  135POPC  H13A17962   2.446   4.597   1.603  0.9122 -0.4284  2.1985
  135POPC  H13B17963   2.362   4.480   1.693  0.5408 -0.3188 -2.2019
  135POPC  H13C17964   2.269   4.565   1.580 -0.7347  0.4555  0.7687
  135POPC   C1417965   2.315   4.815   1.685 -0.3857 -0.0364 -0.4751
  135POPC  H14A17966   2.408   4.852   1.645 -0.3060  1.4260  0.9784
  135POPC  H14B17967   2.230   4.826   1.619  0.9455  2.0786 -1.9634
  135POPC  H14C17968   2.290   4.898   1.749  1.2240  1.8223 -2.1117
  135POPC   C1517969   2.456   4.691   1.834  0.0726  0.5554 -0.2139
  135POPC  H15A17970   2.544   4.687   1.772  0.2940 -0.6587  0.1472
  135POPC  H15B17971   2.455   4.614   1.910 -0.3003 -1.4432 -2.1661
  135POPC  H15C17972   2.448   4.787   1.883 -0.6158  0.7039 -0.6074
  135POPC   C1117973   2.173   4.748   1.955 -0.1180 -0.3725  0.7145
  135POPC  H11A17974   2.247   4.743   2.038 -0.4254  1.2698  1.1203
  135POPC  H11B17975   2.076   4.719   2.001 -0.9834  1.3957  0.0854
  135POPC     P17976   2.099   5.000   1.983 -0.1101 -0.3458 -0.1302
  135POPC   O1317977   1.956   4.973   2.002 -0.4837  0.6148  0.0881
  135POPC   O1417978   2.138   5.120   1.906 -0.0618  0.0552 -0.3373
  135POPC   O1217979   2.167   4.880   1.905  0.5948  0.3921  0.0188
  135POPC   O1117980   2.171   4.995   2.120 -0.1798  0.0206  0.3356
  135POPC    C117981   2.142   4.921   2.238  0.2495  0.7171 -0.8184
  135POPC    HA17982   2.239   4.872   2.260 -0.6218 -1.6225 -1.8269
  135POPC    HB17983   2.074   4.836   2.216  2.4055 -1.3965  0.3454
  135POPC    C217984   2.100   5.007   2.358 -0.3327  0.3358  0.1879
  135POPC    HS17985   1.992   5.020   2.334 -0.2801 -1.3761 -1.1938
  135POPC   O2117986   2.168   5.129   2.359 -0.1271 -0.8247  0.4181
  135POPC   C2117987   2.115   5.218   2.443  0.0223  0.5512  0.0286
  135POPC   O2217988   2.001   5.210   2.487 -0.1084 -0.1670  0.1051
  135POPC   C2217989   2.217   5.326   2.472  0.7964 -0.4730 -0.1939
  135POPC   H2R17990   2.235   5.386   2.380 -0.3332  2.3278  1.2806
  135POPC   H2S17991   2.313   5.284   2.509 -0.1642 -1.3980  1.3646
  135POPC    C317992   2.117   4.926   2.493  0.6799 -0.1618 -0.6487
  135POPC    HX17993   2.079   4.824   2.472  2.0246 -1.0171  0.9021
  135POPC    HY17994   2.054   4.967   2.575  2.6488 -0.9766  1.3639
  135POPC   O3117995   2.250   4.914   2.542 -0.2108 -0.2732  0.4824
  135POPC   C3117996   2.261   4.875   2.665 -0.4930 -1.1486 -0.1181
  135POPC   O3217997   2.168   4.850   2.743  0.3869 -0.2046  0.0763
  135POPC   C3217998   2.406   4.876   2.705  0.5389 -0.4302  0.6449
  135POPC   H2X17999   2.427   4.973   2.755  1.0621  1.3076 -2.6649
  135POPC   H2Y18000   2.469   4.881   2.614  1.6930 -0.3292  1.4280
  135POPC   C2318001   2.159   5.429   2.576 -0.3351 -0.2948 -0.7174
  135POPC   H3R18002   2.065   5.472   2.535  0.0494 -1.5607 -3.1291
  135POPC   H3S18003   2.229   5.515   2.582 -0.7412 -0.0450  0.9753
  135POPC   C2418004   2.149   5.386   2.714 -0.6131  0.6834 -0.6792
  135POPC   H4R18005   2.093   5.291   2.708  0.3010 -0.1437  2.3102
  135POPC   H4S18006   2.086   5.457   2.772  0.9748 -0.3520  2.5290
  135POPC   C2518007   2.276   5.347   2.797  0.3575 -0.3181  0.7293
  135POPC   H5R18008   2.301   5.437   2.858 -0.9486  1.5162 -1.2630
  135POPC   H5S18009   2.361   5.344   2.725  0.3993  2.0904  0.5902
  135POPC   C2618010   2.250   5.232   2.898 -0.5822  0.4247  0.5824
  135POPC   H6R18011   2.198   5.142   2.859  0.7849  0.0451 -0.4264
  135POPC   H6S18012   2.181   5.271   2.977 -0.0491  1.1306  0.7084
  135POPC   C2718013   2.378   5.170   2.971  0.3633  0.4626  0.0504
  135POPC   H7R18014   2.443   5.119   2.897  2.1550  1.4011  0.9196
  135POPC   H7S18015   2.330   5.102   3.045 -1.6153  0.5699 -1.0775
  135POPC   C2818016   2.480   5.260   3.028 -0.7692 -0.4816 -0.1987
  135POPC   H8R18017   2.513   5.335   2.953  0.8215  0.0327  0.9608
  135POPC   H8S18018   2.564   5.187   3.035 -0.3823  0.1026  2.1562
  135POPC   C2918019   2.457   5.324   3.161  0.3823  0.0018 -0.1510
  135POPC   H9118020   2.386   5.407   3.154 -2.6334 -2.2196  1.5060
  135POPC  C21018021   2.519   5.300   3.278 -0.5728  0.1588  0.1243
  135POPC  H10118022   2.485   5.349   3.370 -0.3489  0.4946  0.0282
  135POPC  C21118023   2.642   5.212   3.294  0.1999 -0.2001  0.0169
  135POPC  H11R18024   2.722   5.276   3.336  0.8509 -0.4892 -0.7515
  135POPC  H11S18025   2.688   5.176   3.199  1.0423 -1.0039  0.7096
  135POPC  C21218026   2.604   5.082   3.359 -0.2915  1.1478 -0.5609
  135POPC  H12R18027   2.533   5.019   3.301  1.1465  0.2505 -1.4294
  135POPC  H12S18028   2.559   5.100   3.458  1.0413 -1.3982  0.6084
  135POPC  C21318029   2.730   4.992   3.376  0.2354 -0.2128 -0.9191
  135POPC  H13R18030   2.816   5.061   3.391 -0.6189  0.5292  0.7764
  135POPC  H13S18031   2.746   4.928   3.286  0.4711 -1.4806 -0.0117
  135POPC  C21418032   2.722   4.900   3.497  0.0831 -0.7722  0.1902
  135POPC  H14R18033   2.652   4.814   3.489 -1.1028 -0.1388  2.6984
  135POPC  H14S18034   2.703   4.965   3.585 -2.1695  1.5514 -1.8612
  135POPC  C21518035   2.867   4.855   3.520 -0.3072  0.6096 -0.0593
  135POPC  H15R18036   2.945   4.934   3.507 -0.2714  0.5847  0.0005
  135POPC  H15S18037   2.896   4.781   3.443  0.8684 -0.8511  1.6841
  135POPC  C21618038   2.875   4.795   3.666  0.2138 -0.9779 -0.3989
  135POPC  H16R18039   2.918   4.693   3.669 -0.4305 -1.2872  3.6708
  135POPC  H16S18040   2.774   4.765   3.702  0.8148 -1.8832  0.5547
  135POPC  C21718041   2.933   4.896   3.766  0.1830  0.3358  0.0770
  135POPC  H17R18042   2.860   4.976   3.788 -1.9382 -1.5335  0.2543
  135POPC  H17S18043   3.020   4.949   3.722  0.3434  0.7409  0.8613
  135POPC  C21818044   2.968   4.844   3.909 -0.1523 -0.9811 -0.7110
  135POPC  H18R18045   2.997   4.933   3.969 -2.2354 -0.8337  0.1625
  135POPC  H18S18046   3.049   4.768   3.903 -0.0185 -1.0204  1.0497
  135POPC  H18T18047   2.872   4.802   3.946  0.9520 -0.8686  2.6259
  135POPC   C3318048   2.459   4.760   2.789 -0.1803 -0.4100  0.2147
  135POPC   H3X18049   2.569   4.765   2.804  0.0532 -0.5619 -1.2993
  135POPC   H3Y18050   2.441   4.663   2.737 -1.9422 -1.0897  2.0006
  135POPC   C3418051   2.395   4.760   2.924 -0.5890  0.4226 -0.1109
  135POPC   H4X18052   2.293   4.722   2.902 -0.4561  0.6626 -1.1477
  135POPC   H4Y18053   2.401   4.863   2.966 -0.3271  0.1589  0.5085
  135POPC   C3518054   2.463   4.661   3.016 -0.1948 -0.3558 -0.7306
  135POPC   H5X18055   2.561   4.630   2.976 -0.4011  1.0312 -2.4091
  135POPC   H5Y18056   2.394   4.574   3.010 -0.8231  0.1433 -0.9339
  135POPC   C3618057   2.477   4.712   3.165 -0.6255 -0.4087  0.2779
  135POPC   H6X18058   2.550   4.794   3.172 -0.0368 -0.9427  0.4852
  135POPC   H6Y18059   2.500   4.631   3.238  0.6897  0.2663  0.6395
  135POPC   C3718060   2.343   4.763   3.213 -0.1703 -0.1361 -0.0730
  135POPC   H7X18061   2.256   4.704   3.176 -1.4661  0.6757  1.5558
  135POPC   H7Y18062   2.328   4.861   3.162 -0.6607 -0.3322 -0.3139
  135POPC   C3818063   2.331   4.772   3.366  0.4932 -0.3309 -0.0714
  135POPC   H8X18064   2.257   4.845   3.406  0.7631  1.3979 -2.5150
  135POPC   H8Y18065   2.430   4.812   3.399  1.1700 -0.4808 -1.8237
  135POPC   C3918066   2.308   4.636   3.441  0.1322  0.4698  0.7464
  135POPC   H9X18067   2.369   4.557   3.393  0.0287  1.1385 -0.5394
  135POPC   H9Y18068   2.198   4.624   3.426  0.2902  2.3893 -3.3542
  135POPC  C31018069   2.347   4.654   3.592  0.0906  0.1879 -0.1477
  135POPC  H10X18070   2.458   4.665   3.595 -0.0098  0.9934  0.7241
  135POPC  H10Y18071   2.334   4.556   3.642  1.5136  1.2936  2.5643
  135POPC  C31118072   2.275   4.768   3.674  0.6778 -0.3206 -0.3751
  135POPC  H11X18073   2.165   4.757   3.668  0.0565  1.9325  3.3583
  135POPC  H11Y18074   2.319   4.864   3.639  0.3665  0.0501  0.2335
  135POPC  C31218075   2.320   4.780   3.829 -0.1503 -0.4134  0.1670
  135POPC  H12X18076   2.431   4.786   3.821 -0.2867 -0.3351 -2.7202
  135POPC  H12Y18077   2.298   4.687   3.885 -1.2061 -2.2514 -3.0526
  135POPC  C31318078   2.266   4.911   3.885 -0.4862  0.0338  0.2554
  135POPC  H13X18079   2.305   4.981   3.808  1.4606 -1.5359 -0.2618
  135POPC  H13Y18080   2.317   4.944   3.978  0.6266 -0.3952 -0.1823
  135POPC  C31418081   2.117   4.916   3.904 -0.1362 -0.1373 -0.5452
  135POPC  H14X18082   2.088   4.831   3.971  0.8503 -0.6264 -0.7287
  135POPC  H14Y18083   2.057   4.905   3.811 -1.2414 -0.2492  0.1556
  135POPC  C31518084   2.069   5.050   3.971  0.0317  0.5320  0.1682
  135POPC  H15X18085   1.959   5.050   3.981  0.1854  0.3755  2.4874
  135POPC  H15Y18086   2.104   5.140   3.915  0.6439 -0.0749 -0.4516
  135POPC  C31618087   2.119   5.056   4.119  0.6316 -0.2949  0.1226
  135POPC  H16X18088   2.230   5.066   4.125  1.0225 -1.6962 -2.9042
  135POPC  H16Y18089   2.086   4.972   4.183 -1.4489  0.5892  0.3027
  135POPC  H16Z18090   2.071   5.135   4.182 -0.3072 -1.3871  0.8151
  136POPC     N18091   4.023   4.653   2.214  0.5982  0.7210 -0.6157
  136POPC   C1218092   4.053   4.613   2.074  0.2642  0.2782 -0.2686
  136POPC  H12A18093   4.142   4.660   2.035 -0.6222  0.7652 -1.8262
  136POPC  H12B18094   3.970   4.652   2.017 -1.6092 -0.3948  1.8672
  136POPC   C1318095   4.129   4.596   2.299  0.4183 -0.5625 -0.9460
  136POPC  H13A18096   4.114   4.602   2.405 -0.6257  2.2241 -1.1703
  136POPC  H13B18097   4.141   4.493   2.269 -0.5882 -1.6724  2.1057
  136POPC  H13C18098   4.221   4.644   2.268 -0.1992  0.2859 -1.5233
  136POPC   C1418099   4.027   4.800   2.241  0.4153  0.2681  0.2288
  136POPC  H14A18100   3.958   4.849   2.174  0.2921  1.7109  1.3652
  136POPC  H14B18101   4.010   4.835   2.342  1.2000  2.1337 -0.2283
  136POPC  H14C18102   4.125   4.840   2.219  0.2860  0.3427 -0.2391
  136POPC   C1518103   3.890   4.597   2.259  0.3315  0.0096 -0.0350
  136POPC  H15A18104   3.884   4.489   2.247 -0.1704  0.2252 -1.9175
  136POPC  H15B18105   3.800   4.635   2.213 -0.6238 -2.0289  0.0017
  136POPC  H15C18106   3.881   4.609   2.366  0.3630  0.9261 -0.1322
  136POPC   C1118107   4.064   4.458   2.038  0.0157 -0.0067  0.0178
  136POPC  H11A18108   4.058   4.449   1.927 -1.6275 -2.0135  0.2030
  136POPC  H11B18109   3.967   4.414   2.070 -0.4999  0.7361 -0.5024
  136POPC     P18110   4.328   4.409   2.029  0.3895 -0.1474 -0.1310
  136POPC   O1318111   4.353   4.556   2.014 -0.7458  0.1056 -0.6541
  136POPC   O1418112   4.325   4.330   1.907  0.3887 -0.4619  0.4372
  136POPC   O1218113   4.189   4.401   2.098  1.1222  0.4835 -0.1102
  136POPC   O1118114   4.421   4.348   2.139 -0.2337 -0.9530  0.3496
  136POPC    C118115   4.384   4.244   2.234 -0.2103 -0.4121  0.4759
  136POPC    HA18116   4.458   4.165   2.212 -1.9374 -2.1120  0.4649
  136POPC    HB18117   4.286   4.203   2.202 -1.1874  1.5557  0.8258
  136POPC    C218118   4.373   4.295   2.380  0.2155 -0.3367  0.0161
  136POPC    HS18119   4.282   4.358   2.381  0.4898  0.0681 -0.1036
  136POPC   O2118120   4.493   4.375   2.414  0.4078  0.1645 -0.1533
  136POPC   C2118121   4.472   4.475   2.494  0.3846  0.3045 -0.2786
  136POPC   O2218122   4.363   4.514   2.531 -0.8930  0.3798  0.0960
  136POPC   C2218123   4.603   4.536   2.533  0.1946 -0.1987 -0.0827
  136POPC   H2R18124   4.640   4.576   2.437  1.2450 -1.8042 -0.3840
  136POPC   H2S18125   4.672   4.454   2.564  2.7382  1.1515 -1.7919
  136POPC    C318126   4.353   4.178   2.484  0.1702 -0.5660  0.5733
  136POPC    HX18127   4.443   4.113   2.483  0.6228  0.0455  0.7227
  136POPC    HY18128   4.258   4.127   2.457  0.6821 -1.2807  0.0735
  136POPC   O3118129   4.334   4.232   2.614 -0.4071  0.1720  0.4688
  136POPC   C3118130   4.434   4.220   2.695 -0.4576  0.7365  0.4201
  136POPC   O3218131   4.552   4.218   2.665  0.4361 -0.7039 -0.4833
  136POPC   C3218132   4.378   4.254   2.835  0.1020 -0.4127 -0.9581
  136POPC   H2X18133   4.268   4.238   2.833  0.1051 -0.5651 -0.2632
  136POPC   H2Y18134   4.411   4.356   2.865 -1.3381 -0.2633  0.2091
  136POPC   C2318135   4.597   4.665   2.624 -0.1771  0.3703  0.1981
  136POPC   H3R18136   4.528   4.735   2.573  0.7112  1.3247  0.2797
  136POPC   H3S18137   4.704   4.693   2.618  0.3221 -1.6807 -2.5118
  136POPC   C2418138   4.546   4.629   2.767 -0.2886  0.1761  0.2156
  136POPC   H4R18139   4.455   4.565   2.764  2.1123 -3.5264 -1.9456
  136POPC   H4S18140   4.523   4.726   2.816 -0.9861  0.9914 -1.6402
  136POPC   C2518141   4.638   4.552   2.856  0.0959 -0.0067 -0.3165
  136POPC   H5R18142   4.737   4.602   2.861 -0.4686  1.0474  1.2387
  136POPC   H5S18143   4.659   4.452   2.814  0.7584 -0.5261  1.2014
  136POPC   C2618144   4.583   4.544   3.002  0.1778 -0.4325  0.1773
  136POPC   H6R18145   4.476   4.513   2.999  0.2566 -0.7284  0.3972
  136POPC   H6S18146   4.571   4.649   3.038  0.4159  0.1196 -1.2851
  136POPC   C2718147   4.652   4.443   3.091 -0.1519  0.0628  0.9236
  136POPC   H7R18148   4.752   4.489   3.106  0.0497 -0.9529  3.0677
  136POPC   H7S18149   4.671   4.351   3.032  0.4618  1.6235 -1.4576
  136POPC   C2818150   4.596   4.409   3.232  0.2747 -0.4508  0.2747
  136POPC   H8R18151   4.489   4.379   3.237  0.2771 -0.3869  0.7716
  136POPC   H8S18152   4.601   4.507   3.284 -0.0614  0.8435 -1.9782
  136POPC   C2918153   4.675   4.312   3.318 -0.5479 -0.1978 -0.0793
  136POPC   H9118154   4.777   4.293   3.281 -0.3428  1.9900 -0.7919
  136POPC  C21018155   4.632   4.245   3.418 -0.4404 -0.1241 -0.0792
  136POPC  H10118156   4.709   4.188   3.471 -0.3670  1.0317  1.1204
  136POPC  C21118157   4.501   4.267   3.492 -0.5650  0.5037  0.6302
  136POPC  H11R18158   4.455   4.363   3.458  1.1602  0.9478 -0.5353
  136POPC  H11S18159   4.517   4.276   3.602  2.3854  0.0356  0.3200
  136POPC  C21218160   4.402   4.158   3.460 -0.1152 -0.0560 -0.0642
  136POPC  H12R18161   4.417   4.132   3.352  1.3540 -1.0883  0.3505
  136POPC  H12S18162   4.294   4.181   3.471 -0.2807 -1.0002  0.3816
  136POPC  C21318163   4.420   4.022   3.531 -0.3505  0.2753 -1.0454
  136POPC  H13R18164   4.405   4.030   3.641 -2.7663 -1.3819 -1.1668
  136POPC  H13S18165   4.524   3.991   3.510 -0.0899  0.5420 -0.1913
  136POPC  C21418166   4.314   3.921   3.495  0.1833  0.2700  0.6177
  136POPC  H14R18167   4.306   3.918   3.384  1.6706  0.4597  0.4796
  136POPC  H14S18168   4.218   3.947   3.544 -0.6467 -1.0838 -0.2431
  136POPC  C21518169   4.340   3.774   3.553  0.3094 -0.4708  0.0815
  136POPC  H15R18170   4.381   3.775   3.657  3.1138 -0.1769 -0.9373
  136POPC  H15S18171   4.417   3.736   3.482 -0.5536 -2.7004  0.2552
  136POPC  C21618172   4.224   3.684   3.542  0.4726 -0.0460  0.3684
  136POPC  H16R18173   4.204   3.682   3.433 -3.2146  1.0324  0.9011
  136POPC  H16S18174   4.134   3.726   3.591  0.0973  1.3137 -1.3858
  136POPC  C21718175   4.255   3.536   3.582  0.1103 -0.5013  0.4816
  136POPC  H17R18176   4.345   3.505   3.526 -0.0511  0.1576 -0.1490
  136POPC  H17S18177   4.168   3.476   3.548 -0.1237 -0.6126  1.2513
  136POPC  C21818178   4.272   3.509   3.735 -0.7159 -0.2320  0.6826
  136POPC  H18R18179   4.348   3.578   3.776 -0.3340 -2.2423  3.6624
  136POPC  H18S18180   4.309   3.405   3.750  2.8421  0.7912 -0.0160
  136POPC  H18T18181   4.176   3.525   3.788 -1.3942  2.7112 -1.1935
  136POPC   C3318182   4.449   4.170   2.945  0.2880 -0.0638  0.1603
  136POPC   H3X18183   4.459   4.225   3.041 -0.4364  1.0565 -0.3824
  136POPC   H3Y18184   4.554   4.155   2.912  0.4341  1.7267 -0.2922
  136POPC   C3418185   4.368   4.040   2.975 -0.5736 -0.0376  1.0000
  136POPC   H4X18186   4.343   3.987   2.881  0.4599 -1.8406  1.6946
  136POPC   H4Y18187   4.273   4.078   3.018 -1.3932 -0.9389  0.0429
  136POPC   C3518188   4.434   3.981   3.097 -0.7023  0.5210 -0.4821
  136POPC   H5X18189   4.369   3.893   3.113 -0.0188  0.4091  2.2329
  136POPC   H5Y18190   4.440   4.053   3.182 -1.0274  0.1010 -0.0972
  136POPC   C3618191   4.583   3.940   3.075  0.1186  0.5992 -0.0157
  136POPC   H6X18192   4.640   4.036   3.068 -0.5379  1.0881  1.0981
  136POPC   H6Y18193   4.615   3.876   2.990 -1.5820  0.2618 -0.4295
  136POPC   C3718194   4.628   3.883   3.210  0.8630  0.1059 -0.3109
  136POPC   H7X18195   4.559   3.795   3.217 -1.2112  1.7407  0.9746
  136POPC   H7Y18196   4.594   3.952   3.290 -3.1416 -0.9239 -0.8707
  136POPC   C3818197   4.782   3.845   3.215  0.0779  0.2188 -0.0539
  136POPC   H8X18198   4.837   3.941   3.220  1.5424 -0.3090 -3.2202
  136POPC   H8Y18199   4.803   3.809   3.112 -1.0061  1.5798 -0.7902
  136POPC   C3918200   4.841   3.748   3.317  1.0465 -0.3014  0.1741
  136POPC   H9X18201   4.951   3.736   3.305  1.0255 -0.1162 -0.2160
  136POPC   H9Y18202   4.785   3.654   3.295 -0.9951  0.0453  3.1480
  136POPC  C31018203   4.807   3.784   3.462 -0.1059  0.3271 -0.8434
  136POPC  H10X18204   4.697   3.797   3.469 -0.6815 -3.8111  0.4707
  136POPC  H10Y18205   4.860   3.875   3.497 -1.0418  0.6282 -0.1530
  136POPC  C31118206   4.845   3.676   3.570  0.1042 -0.1760  0.5319
  136POPC  H11X18207   4.955   3.661   3.569  0.1432  0.0813  0.8477
  136POPC  H11Y18208   4.797   3.579   3.546 -1.2648  0.3612  1.0107
  136POPC  C31218209   4.823   3.725   3.710  0.2213  0.4325 -0.4718
  136POPC  H12X18210   4.713   3.741   3.719  0.2316  0.6013 -0.6491
  136POPC  H12Y18211   4.877   3.821   3.727 -0.1228  0.3720  1.2146
  136POPC  C31318212   4.866   3.631   3.822  0.0655 -0.4903  0.5909
  136POPC  H13X18213   4.974   3.603   3.827  0.8079  1.7222 -1.4945
  136POPC  H13Y18214   4.822   3.529   3.815 -1.2205  0.1193 -0.6230
  136POPC  C31418215   4.836   3.699   3.962 -0.9432  0.3201 -0.2337
  136POPC  H14X18216   4.733   3.738   3.973  0.2672  3.3330  1.5157
  136POPC  H14Y18217   4.898   3.790   3.967 -0.9023  0.3803 -1.5330
  136POPC  C31518218   4.867   3.605   4.078 -0.3495  0.2268 -0.6546
  136POPC  H15X18219   4.803   3.515   4.067  0.0880 -0.2899  0.8795
  136POPC  H15Y18220   4.834   3.660   4.169 -1.2460  0.4617 -1.1083
  136POPC  C31618221   5.015   3.571   4.085 -0.2454  0.2235 -0.1539
  136POPC  H16X18222   5.046   3.544   4.188  1.7200  0.0652 -0.7473
  136POPC  H16Y18223   5.070   3.665   4.064 -0.7958  1.3083  2.7872
  136POPC  H16Z18224   5.058   3.496   4.015  2.7470 -0.0954  1.8555
  137POPC     N18225   7.971   2.573   1.988  0.0156  0.8398 -0.1424
  137POPC   C1218226   7.929   2.606   2.132  0.0713 -0.5189  0.0780
  137POPC  H12A18227   7.908   2.510   2.176  1.0805 -1.9991 -2.4437
  137POPC  H12B18228   7.839   2.666   2.123  0.2644 -0.3688 -0.9762
  137POPC   C1318229   7.869   2.487   1.926 -0.0393 -0.2226  0.6045
  137POPC  H13A18230   7.777   2.539   1.946  1.6007  3.7199 -1.0311
  137POPC  H13B18231   7.894   2.485   1.821 -1.0187  0.9094  0.3273
  137POPC  H13C18232   7.871   2.386   1.964 -0.8013 -1.3160 -2.0341
  137POPC   C1418233   7.983   2.691   1.909 -0.5762 -1.2669 -0.1209
  137POPC  H14A18234   8.045   2.675   1.822 -0.5071 -0.2682 -0.2623
  137POPC  H14B18235   7.891   2.728   1.864 -0.0552  1.6850  0.9954
  137POPC  H14C18236   8.037   2.775   1.951 -2.1749  1.6479 -3.3505
  137POPC   C1518237   8.099   2.495   1.991 -0.0095 -0.7304  0.2879
  137POPC  H15A18238   8.173   2.568   2.018 -2.1349  0.7347  2.6025
  137POPC  H15B18239   8.112   2.443   1.897 -0.3336 -1.4575  0.6350
  137POPC  H15C18240   8.102   2.421   2.069 -0.9786 -0.1891  0.8639
  137POPC   C1118241   8.027   2.691   2.219  0.4091  0.3769 -0.2652
  137POPC  H11A18242   8.126   2.644   2.206  0.6104  0.4201  0.9246
  137POPC  H11B18243   7.994   2.687   2.326 -1.4095  2.1608 -0.6947
  137POPC     P18244   7.935   2.939   2.178  0.5205 -0.0805 -0.3260
  137POPC   O1318245   7.800   2.886   2.137 -0.7588  0.2294 -0.2667
  137POPC   O1418246   7.986   3.056   2.110 -0.1033  0.0423 -0.2621
  137POPC   O1218247   8.040   2.822   2.172 -0.0192 -0.7823 -0.5665
  137POPC   O1118248   7.933   2.966   2.336  0.5389  0.7609  0.1626
  137POPC    C118249   8.033   3.041   2.402  0.9536  0.2903  0.7180
  137POPC    HA18250   8.013   3.146   2.372  0.9927 -0.2290 -1.2938
  137POPC    HB18251   8.134   3.038   2.355  0.7613  0.7555  0.2599
  137POPC    C218252   8.042   3.017   2.553  0.0439  0.1415  0.3967
  137POPC    HS18253   8.130   3.069   2.596 -0.7179  0.9150  1.0682
  137POPC   O2118254   8.055   2.879   2.588 -0.3829  0.0175  0.0026
  137POPC   C2118255   8.151   2.806   2.537 -0.4132  0.1197 -0.1226
  137POPC   O2218256   8.244   2.846   2.471 -0.2519  0.1880 -0.4931
  137POPC   C2218257   8.147   2.669   2.608 -0.9442 -0.1931 -0.6857
  137POPC   H2R18258   8.226   2.598   2.576  0.7046  0.8048  0.9372
  137POPC   H2S18259   8.051   2.625   2.574  0.3503 -0.5076 -4.2924
  137POPC    C318260   7.920   3.091   2.633 -0.2823  0.3221  0.4169
  137POPC    HX18261   7.832   3.054   2.576 -0.6619 -1.9490  2.3427
  137POPC    HY18262   7.931   3.199   2.611 -1.8145  0.3190 -0.4980
  137POPC   O3118263   7.919   3.057   2.775 -0.1274 -0.1474  0.0109
  137POPC   C3118264   7.818   2.970   2.804 -0.0663  0.1025 -0.0017
  137POPC   O3218265   7.731   2.935   2.723  0.1956  0.0063  0.0810
  137POPC   C3218266   7.829   2.925   2.949 -0.0311 -0.2446 -0.5362
  137POPC   H2X18267   7.780   2.995   3.020  1.1904 -0.3056  0.4008
  137POPC   H2Y18268   7.938   2.920   2.970  0.3526  2.4082 -1.5188
  137POPC   C2318269   8.144   2.674   2.760  0.5889  0.1901 -0.0945
  137POPC   H3R18270   8.104   2.576   2.795 -2.2958  1.4304  0.3941
  137POPC   H3S18271   8.072   2.744   2.808  0.5564  0.3595 -0.3897
  137POPC   C2418272   8.286   2.705   2.806 -0.1929  0.5615 -0.2381
  137POPC   H4R18273   8.330   2.791   2.752  4.1757 -1.6286 -0.6160
  137POPC   H4S18274   8.346   2.616   2.779 -0.1325  0.8523 -1.0686
  137POPC   C2518275   8.308   2.720   2.955  0.0014  0.1868 -0.0711
  137POPC   H5R18276   8.283   2.640   3.028 -1.8474  1.5275  0.8755
  137POPC   H5S18277   8.230   2.796   2.979  2.1929  1.6823  3.0360
  137POPC   C2618278   8.443   2.777   2.990 -0.2907  0.4936 -0.2574
  137POPC   H6R18279   8.432   2.801   3.098 -1.0902 -0.6056 -0.0898
  137POPC   H6S18280   8.462   2.875   2.941  1.3814  1.1138  1.4861
  137POPC   C2718281   8.565   2.689   2.959 -0.4956  0.5366  0.9001
  137POPC   H7R18282   8.593   2.678   2.852 -1.4217 -0.8647  0.7761
  137POPC   H7S18283   8.539   2.583   2.981  0.9028  0.1082  0.5846
  137POPC   C2818284   8.696   2.726   3.041  1.2308 -1.1707  0.1388
  137POPC   H8R18285   8.717   2.832   3.018 -0.7628 -1.0408 -1.3010
  137POPC   H8S18286   8.788   2.669   3.015  0.8828 -1.7686  0.1818
  137POPC   C2918287   8.667   2.712   3.189 -0.0232 -0.5556 -1.0605
  137POPC   H9118288   8.625   2.799   3.241 -1.0028 -2.2630  1.1991
  137POPC  C21018289   8.675   2.595   3.253  0.0625  0.1394  0.1043
  137POPC  H10118290   8.671   2.600   3.363 -1.2169  2.0010  0.0258
  137POPC  C21118291   8.723   2.456   3.207  0.3984  0.1143 -0.1836
  137POPC  H11R18292   8.759   2.469   3.103 -2.1759  0.8129 -1.0467
  137POPC  H11S18293   8.637   2.385   3.201  0.1255  0.2931  1.3253
  137POPC  C21218294   8.832   2.404   3.310 -0.3450  0.7927  0.3732
  137POPC  H12R18295   8.795   2.341   3.394 -1.3455 -0.0165 -0.6450
  137POPC  H12S18296   8.889   2.488   3.356  0.6813  0.2681  0.0828
  137POPC  C21318297   8.955   2.334   3.256 -0.4332  0.2221  0.8994
  137POPC  H13R18298   9.028   2.304   3.334  0.2607 -0.0768  0.1390
  137POPC  H13S18299   9.009   2.385   3.173 -0.1848 -1.9334 -0.3256
  137POPC  C21418300   8.903   2.198   3.193  0.8396 -0.0310 -0.2138
  137POPC  H14R18301   8.990   2.150   3.144  0.0588 -0.8025 -0.8770
  137POPC  H14S18302   8.824   2.210   3.116 -1.7837 -2.6825  1.8156
  137POPC  C21518303   8.836   2.100   3.285 -0.2854  0.1779  0.0661
  137POPC  H15R18304   8.757   2.141   3.352 -0.9197  1.0352 -1.1643
  137POPC  H15S18305   8.918   2.061   3.349 -1.0623 -0.5559  0.6516
  137POPC  C21618306   8.755   1.983   3.209  0.2247  0.3537  0.0073
  137POPC  H16R18307   8.714   1.916   3.288 -1.7865  0.5740 -0.7938
  137POPC  H16S18308   8.823   1.924   3.145  0.5352  1.3532 -0.6036
  137POPC  C21718309   8.633   2.031   3.125 -0.4751  0.3283 -0.2063
  137POPC  H17R18310   8.668   2.062   3.025 -3.8581  2.2611 -0.9588
  137POPC  H17S18311   8.593   2.122   3.176 -2.8069  0.4215 -2.0236
  137POPC  C21818312   8.524   1.928   3.115  0.1126 -0.5452  0.5474
  137POPC  H18R18313   8.432   1.970   3.070 -0.1078 -0.5646  0.9734
  137POPC  H18S18314   8.510   1.880   3.214  1.0986  2.0175  2.0190
  137POPC  H18T18315   8.565   1.845   3.053  2.2459  0.3981  0.6009
  137POPC   C3318316   7.764   2.788   2.979  0.7082  0.7221  0.3927
  137POPC   H3X18317   7.836   2.722   2.926  0.3824 -0.0194  0.8651
  137POPC   H3Y18318   7.661   2.785   2.938 -0.5318  3.1465  3.0145
  137POPC   C3418319   7.752   2.752   3.126  0.1848  0.0128  0.9193
  137POPC   H4X18320   7.698   2.655   3.126  1.2116 -0.5697  0.8473
  137POPC   H4Y18321   7.683   2.828   3.169 -1.6554 -0.5983 -0.8184
  137POPC   C3518322   7.888   2.751   3.193  0.6172  0.4197  0.3285
  137POPC   H5X18323   7.944   2.846   3.183  0.6957  0.3532  0.1318
  137POPC   H5Y18324   7.932   2.663   3.140 -1.2618 -1.0510  1.0748
  137POPC   C3618325   7.887   2.719   3.345 -0.5366  0.0671  0.2894
  137POPC   H6X18326   7.839   2.619   3.355 -2.1290  0.6768 -0.7826
  137POPC   H6Y18327   7.821   2.790   3.401 -1.7699 -0.4114 -0.5108
  137POPC   C3718328   8.029   2.691   3.396 -0.4094  0.4589  0.3434
  137POPC   H7X18329   8.097   2.777   3.376  1.6739 -1.0987  0.3720
  137POPC   H7Y18330   8.084   2.608   3.346 -1.4845  0.2405 -0.5256
  137POPC   C3818331   8.018   2.654   3.547 -0.7629 -0.0290  0.2852
  137POPC   H8X18332   7.982   2.549   3.547 -1.4283  0.1766 -0.7942
  137POPC   H8Y18333   7.948   2.720   3.604  1.2404  1.8756  0.6756
  137POPC   C3918334   8.150   2.665   3.628 -0.1440 -0.2791  0.4191
  137POPC   H9X18335   8.195   2.763   3.600 -0.0047 -0.6135 -0.5691
  137POPC   H9Y18336   8.215   2.577   3.608  0.9306  0.4067  0.8101
  137POPC  C31018337   8.128   2.664   3.779 -0.1975  0.4717  0.6579
  137POPC  H10X18338   8.055   2.580   3.781 -2.5150  1.9740 -4.6442
  137POPC  H10Y18339   8.085   2.761   3.811 -0.5992  0.8502 -0.9608
  137POPC  C31118340   8.263   2.639   3.860  0.3438 -0.0975  0.3773
  137POPC  H11X18341   8.295   2.533   3.855 -1.7058 -0.6938 -1.4666
  137POPC  H11Y18342   8.244   2.652   3.968  0.3046 -1.9940  0.6310
  137POPC  C31218343   8.378   2.737   3.822  0.8012  0.2674  0.2916
  137POPC  H12X18344   8.333   2.838   3.811  0.9345  0.2324 -0.6376
  137POPC  H12Y18345   8.422   2.709   3.724 -0.5651 -1.0715  0.0260
  137POPC  C31318346   8.491   2.748   3.928 -0.1781  0.4725  0.2822
  137POPC  H13X18347   8.541   2.649   3.936 -0.4851  0.2329 -0.6553
  137POPC  H13Y18348   8.459   2.760   4.033  3.9362  1.9185  1.5911
  137POPC  C31418349   8.598   2.859   3.907  0.7350  0.1739 -0.1881
  137POPC  H14X18350   8.625   2.865   3.800 -1.0215  0.3298 -0.6591
  137POPC  H14Y18351   8.688   2.822   3.961 -0.5717 -1.2659  1.1355
  137POPC  C31518352   8.553   2.999   3.950  0.2157 -0.0597  0.0513
  137POPC  H15X18353   8.527   2.985   4.057 -0.8692 -2.6340 -0.4887
  137POPC  H15Y18354   8.458   3.028   3.899  0.0921 -1.6049 -0.6601
  137POPC  C31618355   8.647   3.112   3.926 -0.0435  0.0069  0.2009
  137POPC  H16X18356   8.682   3.108   3.821 -2.4819 -0.6564 -0.6720
  137POPC  H16Y18357   8.738   3.127   3.987  0.1114  0.8986 -0.2266
  137POPC  H16Z18358   8.598   3.211   3.939  0.6355  0.6129 -1.5231
  138POPC     N18359   7.646   0.391   1.483  0.1023 -1.2617  0.5698
  138POPC   C1218360   7.659   0.397   1.636  0.7167  0.4244  0.1727
  138POPC  H12A18361   7.567   0.355   1.674 -1.0489  2.6426 -1.3528
  138POPC  H12B18362   7.663   0.499   1.671  0.7000  1.3319 -2.2820
  138POPC   C1318363   7.642   0.251   1.425  0.2661 -0.3983  0.3678
  138POPC  H13A18364   7.729   0.194   1.456 -0.4346 -1.6759  0.0659
  138POPC  H13B18365   7.555   0.197   1.459  1.1725 -0.9388  1.9361
  138POPC  H13C18366   7.644   0.252   1.317  0.7851  0.9217  0.3696
  138POPC   C1418367   7.514   0.453   1.451 -0.5457 -1.4250  0.3454
  138POPC  H14A18368   7.517   0.558   1.476  0.6561 -1.8558  2.1901
  138POPC  H14B18369   7.493   0.445   1.345 -1.0391  2.8086 -0.0444
  138POPC  H14C18370   7.420   0.417   1.491 -1.3388 -1.1673 -1.1876
  138POPC   C1518371   7.761   0.466   1.412  0.0402  0.0279  0.0733
  138POPC  H15A18372   7.733   0.496   1.312 -0.7124  0.7196  0.4795
  138POPC  H15B18373   7.851   0.405   1.410  0.4316  0.5724  0.8302
  138POPC  H15C18374   7.792   0.557   1.460 -0.6786  1.9312 -2.8148
  138POPC   C1118375   7.786   0.325   1.695 -0.1637 -0.2155 -0.0587
  138POPC  H11A18376   7.800   0.228   1.643  0.0668 -0.6042  0.7153
  138POPC  H11B18377   7.776   0.311   1.805 -0.8349 -2.2783 -0.3389
  138POPC     P18378   7.931   0.538   1.727  0.0010  0.0036 -0.0864
  138POPC   O1318379   7.814   0.624   1.691 -0.4934 -0.9020  0.1525
  138POPC   O1418380   8.066   0.584   1.685 -0.3315  0.2898 -0.4174
  138POPC   O1218381   7.909   0.395   1.667  0.1124  0.0953  0.2278
  138POPC   O1118382   7.932   0.511   1.883 -0.8694  0.1207 -0.4466
  138POPC    C118383   8.018   0.411   1.941  0.7785 -0.9179  0.3830
  138POPC    HA18384   8.075   0.363   1.858  0.9880  1.7908 -1.1585
  138POPC    HB18385   7.957   0.335   1.994 -0.1697 -1.2127 -1.0761
  138POPC    C218386   8.113   0.463   2.055  0.4532  0.2615 -0.4163
  138POPC    HS18387   8.056   0.512   2.137  2.5273  2.3698 -0.1184
  138POPC   O2118388   8.204   0.558   1.998 -0.6609  0.0563  0.4268
  138POPC   C2118389   8.157   0.687   1.996 -0.4734  0.3303  1.2112
  138POPC   O2218390   8.075   0.731   2.078 -0.1195  0.4667  0.2182
  138POPC   C2218391   8.225   0.767   1.889  0.1166  0.5179  0.6585
  138POPC   H2R18392   8.163   0.778   1.797  2.6001 -0.9363 -1.3262
  138POPC   H2S18393   8.323   0.723   1.859 -0.7245 -0.0059 -1.4658
  138POPC    C318394   8.186   0.343   2.114 -0.5530  0.5291  0.5168
  138POPC    HX18395   8.220   0.289   2.023  2.4256  1.1572  1.1529
  138POPC    HY18396   8.116   0.271   2.161  0.1962 -1.1467 -0.8214
  138POPC   O3118397   8.295   0.393   2.195  0.2857  0.9074 -0.1164
  138POPC   C3118398   8.273   0.411   2.320  0.1279 -0.4096  0.1870
  138POPC   O3218399   8.165   0.394   2.371 -0.0389  0.7359 -0.4003
  138POPC   C3218400   8.400   0.444   2.400 -0.2913 -0.5262  0.4128
  138POPC   H2X18401   8.399   0.547   2.440  2.5453 -0.0578 -0.4707
  138POPC   H2Y18402   8.482   0.458   2.326 -1.8663  2.6619 -0.8977
  138POPC   C2318403   8.251   0.910   1.946 -0.0509 -0.2193  0.4816
  138POPC   H3R18404   8.157   0.968   1.952 -0.0187  0.3350 -2.5455
  138POPC   H3S18405   8.308   0.966   1.869 -0.4354 -1.2332 -0.5755
  138POPC   C2418406   8.333   0.908   2.074 -1.0806  0.7862 -0.2777
  138POPC   H4R18407   8.268   0.869   2.155  1.7025 -2.2104  0.7246
  138POPC   H4S18408   8.366   1.010   2.102  1.3564 -0.3332  1.2194
  138POPC   C2518409   8.462   0.824   2.066  0.4992 -0.0688  0.0733
  138POPC   H5R18410   8.502   0.840   1.964  1.5184  0.1993  0.5027
  138POPC   H5S18411   8.443   0.714   2.070  1.6098 -0.2832 -0.2548
  138POPC   C2618412   8.569   0.860   2.171 -0.6627  0.0592  0.2001
  138POPC   H6R18413   8.574   0.971   2.179 -0.6380 -0.0775  3.2159
  138POPC   H6S18414   8.668   0.828   2.132 -1.1806  0.1242 -1.2335
  138POPC   C2718415   8.539   0.792   2.307 -0.4982  0.0683 -0.1194
  138POPC   H7R18416   8.578   0.688   2.298 -1.5970 -0.3954  0.3749
  138POPC   H7S18417   8.431   0.789   2.331 -0.3095  0.5655  0.8543
  138POPC   C2818418   8.621   0.870   2.420 -0.2621  0.2474  0.6238
  138POPC   H8R18419   8.587   0.975   2.417  2.3810  1.2566  2.0782
  138POPC   H8S18420   8.732   0.860   2.412 -0.0350  0.3888  2.8113
  138POPC   C2918421   8.575   0.807   2.552 -0.4258  0.0229  0.0397
  138POPC   H9118422   8.477   0.847   2.581 -0.4851  1.5928 -2.0843
  138POPC  C21018423   8.639   0.708   2.622  0.1446  0.2891  0.0480
  138POPC  H10118424   8.595   0.670   2.715  1.6596  0.3313  0.8196
  138POPC  C21118425   8.772   0.644   2.580 -0.0706  0.3661 -0.5097
  138POPC  H11R18426   8.837   0.716   2.527 -2.6057  3.8555  0.7774
  138POPC  H11S18427   8.751   0.552   2.521 -0.7479 -0.5049  1.0255
  138POPC  C21218428   8.854   0.585   2.702 -0.1501 -0.6290  0.2465
  138POPC  H12R18429   8.946   0.542   2.657 -1.7610 -2.4635 -1.4351
  138POPC  H12S18430   8.807   0.498   2.751 -0.4709  0.4661  1.9571
  138POPC  C21318431   8.891   0.695   2.812  0.3562 -0.0633  0.2022
  138POPC  H13R18432   8.797   0.742   2.849  0.7741  0.0099  1.2115
  138POPC  H13S18433   8.951   0.769   2.755  0.7177 -0.6720 -0.2227
  138POPC  C21418434   8.961   0.630   2.934 -0.3003  0.5668 -0.2248
  138POPC  H14R18435   9.047   0.568   2.900  0.1958  1.9614 -1.6249
  138POPC  H14S18436   8.880   0.563   2.970 -0.8211  1.2539 -0.1033
  138POPC  C21518437   9.001   0.724   3.052 -0.6847  0.1212 -0.0303
  138POPC  H15R18438   8.909   0.778   3.084 -2.3761 -2.6360  0.1690
  138POPC  H15S18439   9.070   0.803   3.016 -1.0987 -0.0352 -1.2226
  138POPC  C21618440   9.063   0.659   3.172 -0.1707  0.4805 -0.1119
  138POPC  H16R18441   9.167   0.634   3.141 -1.6306 -1.1406 -4.3137
  138POPC  H16S18442   9.012   0.565   3.199  1.5653 -0.6144 -0.4767
  138POPC  C21718443   9.055   0.736   3.305  0.0301 -0.0074 -0.4327
  138POPC  H17R18444   8.960   0.709   3.356 -0.2378  0.2820 -0.7726
  138POPC  H17S18445   9.056   0.842   3.271  2.1574  0.2556  0.3440
  138POPC  C21818446   9.168   0.701   3.403  0.0223  0.9949  0.2352
  138POPC  H18R18447   9.158   0.593   3.428 -0.9471 -0.4052 -4.9120
  138POPC  H18S18448   9.158   0.761   3.496 -1.5776 -0.0155  0.7464
  138POPC  H18T18449   9.268   0.709   3.354 -0.5717  1.1140 -1.0065
  138POPC   C3318450   8.429   0.352   2.515  0.0292  0.0133 -0.1843
  138POPC   H3X18451   8.389   0.253   2.482 -1.3128  0.5568 -0.2317
  138POPC   H3Y18452   8.366   0.365   2.606  0.1214 -0.3141 -0.0710
  138POPC   C3418453   8.570   0.341   2.561  0.2382 -0.1421 -0.3681
  138POPC   H4X18454   8.609   0.430   2.614  2.1819 -0.7233 -0.7264
  138POPC   H4Y18455   8.632   0.323   2.470  0.1640  0.6515 -0.5810
  138POPC   C3518456   8.604   0.227   2.648  0.2157  1.0388 -0.2381
  138POPC   H5X18457   8.713   0.221   2.666  0.2576 -0.5008 -0.8412
  138POPC   H5Y18458   8.570   0.129   2.608 -0.2082  0.1990  2.0166
  138POPC   C3618459   8.547   0.222   2.789 -0.3139 -0.2597  0.7853
  138POPC   H6X18460   8.505   0.120   2.803 -1.1170 -0.4296 -2.1875
  138POPC   H6Y18461   8.457   0.287   2.777  1.1608  1.6069 -0.8517
  138POPC   C3718462   8.639   0.277   2.904  0.0651  0.5634 -0.3414
  138POPC   H7X18463   8.666   0.384   2.894  1.1685  0.5909  2.3601
  138POPC   H7Y18464   8.731   0.216   2.912 -0.7714 -0.7050 -0.0275
  138POPC   C3818465   8.565   0.262   3.039 -0.1793 -0.0014 -0.3065
  138POPC   H8X18466   8.526   0.160   3.062 -2.1081  0.7500  0.0065
  138POPC   H8Y18467   8.476   0.328   3.033 -1.5226 -1.5043  1.7948
  138POPC   C3918468   8.655   0.299   3.166  0.1336  0.0996  0.2355
  138POPC   H9X18469   8.692   0.403   3.152 -1.2585  0.8347  1.6643
  138POPC   H9Y18470   8.746   0.236   3.169  0.0813  0.0526  0.8916
  138POPC  C31018471   8.571   0.296   3.289 -0.1822 -0.6162 -0.3933
  138POPC  H10X18472   8.548   0.189   3.311 -1.0676  0.0358  2.2430
  138POPC  H10Y18473   8.475   0.348   3.272 -0.3645 -0.0403  1.9729
  138POPC  C31118474   8.651   0.360   3.405  0.7754  0.2030 -0.2471
  138POPC  H11X18475   8.704   0.454   3.378  0.5560  0.9970  1.8654
  138POPC  H11Y18476   8.731   0.286   3.426 -0.3070 -0.8382  0.3290
  138POPC  C31218477   8.575   0.376   3.533 -0.1720 -0.3006  0.9006
  138POPC  H12X18478   8.653   0.391   3.611  0.4011 -0.5131  0.3728
  138POPC  H12Y18479   8.518   0.286   3.564 -2.3364  1.4750  2.4748
  138POPC  C31318480   8.474   0.490   3.524 -0.5465 -1.1063  1.0131
  138POPC  H13X18481   8.410   0.479   3.434  0.6216  0.4260 -0.0844
  138POPC  H13Y18482   8.533   0.579   3.491 -0.3558 -2.2724 -2.1878
  138POPC  C31418483   8.409   0.511   3.657  0.3460  0.2040  0.3527
  138POPC  H14X18484   8.356   0.420   3.692  0.1178  0.4564  0.6713
  138POPC  H14Y18485   8.330   0.587   3.639  2.4632  2.6550  0.9624
  138POPC  C31518486   8.487   0.573   3.770 -0.0647 -0.0746  0.1519
  138POPC  H15X18487   8.587   0.525   3.783  0.8506  1.9017  0.8391
  138POPC  H15Y18488   8.422   0.556   3.858 -0.3936 -0.7758 -0.2181
  138POPC  C31618489   8.513   0.727   3.752  0.5448 -0.2539 -0.6955
  138POPC  H16X18490   8.566   0.743   3.656  0.9643 -0.3090 -0.4748
  138POPC  H16Y18491   8.573   0.775   3.832 -0.8205 -1.0787  0.8684
  138POPC  H16Z18492   8.418   0.784   3.742  0.3725 -0.6458 -1.3729
  139POPC     N18493   3.268   3.848   2.006  0.8064  0.0717  0.3837
  139POPC   C1218494   3.287   3.702   1.955  0.3395 -0.0893 -0.5428
  139POPC  H12A18495   3.293   3.701   1.847  0.1549  2.2391 -0.6294
  139POPC  H12B18496   3.191   3.656   1.976  0.4311 -0.1603 -0.2854
  139POPC   C1318497   3.372   3.932   1.944  0.3800  0.1572  0.2623
  139POPC  H13A18498   3.469   3.905   1.984 -0.1383 -1.9461  0.2184
  139POPC  H13B18499   3.376   3.924   1.836 -2.7085  1.5592 -0.0498
  139POPC  H13C18500   3.355   4.035   1.972 -4.1691 -1.3390  4.2336
  139POPC   C1418501   3.134   3.901   1.969  0.1175 -0.4220  0.4245
  139POPC  H14A18502   3.115   3.997   2.014 -2.6300 -0.7834  0.2266
  139POPC  H14B18503   3.131   3.909   1.861  1.5019  0.1520  0.4134
  139POPC  H14C18504   3.060   3.827   1.997 -0.7389 -0.0222 -0.6732
  139POPC   C1518505   3.273   3.849   2.154  0.1292  0.1241 -0.8286
  139POPC  H15A18506   3.360   3.796   2.189  1.1896  1.0224 -2.0151
  139POPC  H15B18507   3.182   3.801   2.188 -0.9602  1.9055 -1.1012
  139POPC  H15C18508   3.287   3.949   2.194  1.1464 -0.8201  1.3451
  139POPC   C1118509   3.406   3.619   2.009  0.3990 -0.0803 -0.0068
  139POPC  H11A18510   3.418   3.526   1.950 -0.0014 -0.2323  0.1478
  139POPC  H11B18511   3.378   3.569   2.104  0.5100  2.7565  1.6323
  139POPC     P18512   3.642   3.664   1.916 -0.3370  0.3787 -0.4126
  139POPC   O1318513   3.617   3.713   1.778  0.8124  0.1096  0.2059
  139POPC   O1418514   3.667   3.520   1.925 -0.0991 -0.2859  0.2162
  139POPC   O1218515   3.527   3.702   2.016  0.0716  0.1757 -0.1994
  139POPC   O1118516   3.762   3.735   1.986 -0.2454 -0.1520  0.1424
  139POPC    C118517   3.898   3.704   1.990  0.4225 -0.0962  0.0445
  139POPC    HA18518   3.963   3.766   1.924 -0.5467 -0.3364 -1.1797
  139POPC    HB18519   3.903   3.599   1.954  1.8437 -0.1697  0.4001
  139POPC    C218520   3.952   3.694   2.138 -0.4904 -0.0889  0.2326
  139POPC    HS18521   4.049   3.643   2.120  0.3869  1.5093  0.1804
  139POPC   O2118522   3.863   3.634   2.226 -0.6679  0.0792  0.5601
  139POPC   C2118523   3.856   3.500   2.217 -0.4607  0.0873  0.8639
  139POPC   O2218524   3.932   3.439   2.144  0.7128  0.3352  0.7135
  139POPC   C2218525   3.748   3.453   2.310 -0.1124 -0.2305 -0.2273
  139POPC   H2R18526   3.750   3.342   2.315 -0.8272 -0.2081  1.0617
  139POPC   H2S18527   3.652   3.491   2.268  0.9096  1.0681 -1.4456
  139POPC    C318528   3.977   3.838   2.191  0.0383  0.6936  0.9278
  139POPC    HX18529   3.875   3.881   2.192 -0.6849 -0.9020 -0.2765
  139POPC    HY18530   4.037   3.903   2.124  0.3720  1.7817  2.2199
  139POPC   O3118531   4.050   3.830   2.314 -0.2771 -0.5893  0.0984
  139POPC   C3118532   4.170   3.778   2.315 -1.0021 -0.1555 -0.0880
  139POPC   O3218533   4.237   3.755   2.216  0.2671  0.3124  0.4842
  139POPC   C3218534   4.209   3.768   2.461  0.2968  0.0396 -1.0652
  139POPC   H2X18535   4.151   3.682   2.500  1.3132  0.1731  0.8468
  139POPC   H2Y18536   4.176   3.859   2.514 -0.4958 -0.6734 -0.2999
  139POPC   C2318537   3.762   3.520   2.458  0.6195  0.2119  0.3051
  139POPC   H3R18538   3.664   3.514   2.509  0.0257  1.8162 -0.5699
  139POPC   H3S18539   3.791   3.627   2.449  0.8625  0.0747 -0.6786
  139POPC   C2418540   3.865   3.448   2.543  0.0762 -0.1469 -0.0981
  139POPC   H4R18541   3.969   3.463   2.505 -0.5871  0.7166 -1.6879
  139POPC   H4S18542   3.848   3.339   2.545  0.2171 -0.2261 -1.8317
  139POPC   C2518543   3.865   3.511   2.685 -0.0268 -0.5418 -0.0416
  139POPC   H5R18544   3.768   3.490   2.734  1.0726 -1.2446  1.9634
  139POPC   H5S18545   3.859   3.622   2.679  1.0896 -0.5009 -0.6257
  139POPC   C2618546   3.968   3.447   2.780 -0.4053  0.6908 -0.4764
  139POPC   H6R18547   4.072   3.463   2.744  0.0478  0.6520  0.7680
  139POPC   H6S18548   3.933   3.342   2.786  3.6546 -0.9491 -1.9169
  139POPC   C2718549   3.955   3.504   2.920 -0.7362 -0.1051 -0.5464
  139POPC   H7R18550   3.847   3.525   2.935 -0.6698  0.4423 -0.8127
  139POPC   H7S18551   4.008   3.601   2.921  1.5724 -1.2719  1.3149
  139POPC   C2818552   4.014   3.412   3.028 -0.1861  0.4591  0.0204
  139POPC   H8R18553   4.121   3.394   3.008 -0.8036 -1.4847 -1.9819
  139POPC   H8S18554   3.958   3.318   3.008 -0.0528  0.1985  0.8244
  139POPC   C2918555   3.983   3.469   3.158 -0.2165  0.2021  0.6944
  139POPC   H9118556   4.044   3.554   3.194 -0.5621  0.4653  0.6642
  139POPC  C21018557   3.893   3.423   3.243 -0.2903  0.2367 -0.9193
  139POPC  H10118558   3.882   3.473   3.341  1.5715 -2.1353  0.6037
  139POPC  C21118559   3.798   3.300   3.244 -0.7561  0.2842  0.5335
  139POPC  H11R18560   3.840   3.220   3.179  1.9639  2.2042 -0.2227
  139POPC  H11S18561   3.702   3.343   3.210  0.0388  1.6954  0.0156
  139POPC  C21218562   3.777   3.239   3.391  0.3621 -0.5375  0.0529
  139POPC  H12R18563   3.721   3.143   3.384  0.9518 -1.1038  2.2383
  139POPC  H12S18564   3.714   3.309   3.452  1.8252  1.4934 -0.6642
  139POPC  C21318565   3.909   3.182   3.458 -0.2182  0.6889  0.1942
  139POPC  H13R18566   3.992   3.256   3.464 -0.5364  1.3677 -2.4421
  139POPC  H13S18567   3.932   3.096   3.392  0.2340  0.4700  0.6348
  139POPC  C21418568   3.895   3.123   3.597  0.1582 -1.0221  0.1685
  139POPC  H14R18569   3.806   3.058   3.604 -1.3371  0.8063 -0.8513
  139POPC  H14S18570   3.878   3.210   3.664 -0.3874 -1.0921  0.1227
  139POPC  C21518571   4.016   3.046   3.646 -0.3577 -0.9334  0.1108
  139POPC  H15R18572   4.100   3.119   3.649 -2.0899  1.1291  0.8543
  139POPC  H15S18573   4.038   2.957   3.583  1.6971 -1.2499  1.1708
  139POPC  C21618574   3.982   2.981   3.792  0.6356 -0.5018  0.2639
  139POPC  H16R18575   3.889   2.921   3.781 -0.4690  0.8058  2.0139
  139POPC  H16S18576   3.958   3.061   3.866  1.4595  0.1702 -0.1692
  139POPC  C21718577   4.096   2.898   3.850  0.6899  0.4680 -0.5461
  139POPC  H17R18578   4.181   2.965   3.874  0.6092  0.3355  0.1400
  139POPC  H17S18579   4.129   2.824   3.773 -1.2128 -2.4257  1.2029
  139POPC  C21818580   4.049   2.822   3.980  0.1612 -0.0424 -0.3751
  139POPC  H18R18581   4.131   2.763   4.025 -0.9172 -1.1266  0.2320
  139POPC  H18S18582   3.959   2.759   3.964 -0.7016  0.6439  1.4667
  139POPC  H18T18583   4.018   2.899   4.054  0.9550 -0.1079  0.0414
  139POPC   C3318584   4.357   3.762   2.486 -0.4949  0.1177 -0.3240
  139POPC   H3X18585   4.415   3.829   2.419  0.8400 -1.7490 -1.1135
  139POPC   H3Y18586   4.387   3.656   2.473 -0.8677  0.1804 -1.8881
  139POPC   C3418587   4.387   3.797   2.637 -0.1448 -0.2213 -0.1507
  139POPC   H4X18588   4.354   3.899   2.663  0.0944  0.3961 -2.1070
  139POPC   H4Y18589   4.495   3.795   2.660 -0.5381  1.2548  2.0518
  139POPC   C3518590   4.323   3.693   2.727  0.1047  0.2746  0.4199
  139POPC   H5X18591   4.347   3.595   2.681  0.4430 -0.1206  1.4094
  139POPC   H5Y18592   4.212   3.705   2.725  0.2570  2.0106  0.7584
  139POPC   C3618593   4.377   3.701   2.866  0.2477  0.3713  0.3829
  139POPC   H6X18594   4.305   3.749   2.935  0.6952  1.3207  0.2020
  139POPC   H6Y18595   4.471   3.759   2.875  1.6129 -1.3598 -1.6456
  139POPC   C3718596   4.399   3.559   2.924  0.8249  0.1036 -0.0842
  139POPC   H7X18597   4.445   3.486   2.853 -0.7357 -1.5998  0.5445
  139POPC   H7Y18598   4.295   3.517   2.922  0.7749  0.2401 -1.6866
  139POPC   C3818599   4.443   3.555   3.069  1.1316 -0.0242 -0.2672
  139POPC   H8X18600   4.389   3.635   3.124  2.3583 -0.2235  1.2984
  139POPC   H8Y18601   4.552   3.579   3.074  0.9944  0.4587  0.8772
  139POPC   C3918602   4.412   3.424   3.141 -0.4720 -0.0035  0.8195
  139POPC   H9X18603   4.438   3.359   3.054 -1.2445  0.6018  0.1257
  139POPC   H9Y18604   4.306   3.398   3.162 -1.4212 -0.6042 -3.6620
  139POPC  C31018605   4.503   3.376   3.252 -0.5773  0.0618 -0.3552
  139POPC  H10X18606   4.455   3.427   3.338  0.4468  2.0531 -0.9047
  139POPC  H10Y18607   4.609   3.400   3.233  0.4708 -1.9918  2.2731
  139POPC  C31118608   4.490   3.220   3.278 -0.3037 -0.1356 -0.2894
  139POPC  H11X18609   4.552   3.166   3.203 -0.5991  0.5390 -1.0410
  139POPC  H11Y18610   4.393   3.168   3.269  0.6690 -2.4698  1.6471
  139POPC  C31218611   4.552   3.191   3.411 -0.4632 -0.8014 -0.2139
  139POPC  H12X18612   4.617   3.274   3.448 -2.5229  0.6811  0.3097
  139POPC  H12Y18613   4.610   3.097   3.414 -0.8932 -1.0542  0.5120
  139POPC  C31318614   4.445   3.185   3.528 -0.0086  0.4557  1.0108
  139POPC  H13X18615   4.373   3.105   3.500 -0.2283  1.2315 -0.7983
  139POPC  H13Y18616   4.390   3.281   3.525  1.1690  1.1526  1.2602
  139POPC  C31418617   4.501   3.170   3.671 -0.3394  0.4442  0.8142
  139POPC  H14X18618   4.561   3.078   3.687  0.2638  0.9748  1.7131
  139POPC  H14Y18619   4.420   3.165   3.747 -1.3099  2.3985 -0.0099
  139POPC  C31518620   4.596   3.295   3.693 -0.9431  0.0132 -0.3202
  139POPC  H15X18621   4.553   3.397   3.688 -0.3690  0.4839  2.7288
  139POPC  H15Y18622   4.684   3.290   3.625 -1.3595  1.9287 -1.0772
  139POPC  C31618623   4.654   3.278   3.836  0.3057 -0.3640  0.5714
  139POPC  H16X18624   4.725   3.195   3.852 -0.2991 -0.6499  1.8922
  139POPC  H16Y18625   4.574   3.286   3.913 -1.6189  0.3304 -1.3952
  139POPC  H16Z18626   4.716   3.368   3.857 -0.4672  0.1199  0.8354
  140POPC     N18627   6.062   3.212   2.061 -0.0330 -0.0991  0.4146
  140POPC   C1218628   6.148   3.107   2.134  0.0768 -0.0218  0.2589
  140POPC  H12A18629   6.243   3.109   2.083  0.8160  0.0752  1.6022
  140POPC  H12B18630   6.101   3.010   2.132 -2.1316  0.9845 -1.2342
  140POPC   C1318631   6.141   3.335   2.028 -0.0341  0.3770 -0.4211
  140POPC  H13A18632   6.204   3.311   1.944  0.4868  0.3016 -0.0208
  140POPC  H13B18633   6.076   3.417   2.001 -1.0348 -0.2527  0.0339
  140POPC  H13C18634   6.203   3.373   2.109  0.7402  0.2562 -0.9481
  140POPC   C1418635   6.012   3.158   1.922  0.0040 -0.1827 -0.5317
  140POPC  H14A18636   6.098   3.127   1.864  0.9076  1.5426 -0.1844
  140POPC  H14B18637   5.939   3.082   1.947  0.0019  0.4068  1.4511
  140POPC  H14C18638   5.976   3.240   1.862  1.0854 -0.1978 -1.2303
  140POPC   C1518639   5.938   3.261   2.126  0.3854  0.2262 -0.3354
  140POPC  H15A18640   5.861   3.187   2.145  0.5570  0.2837  0.6499
  140POPC  H15B18641   5.888   3.340   2.072  0.5731  1.5573  1.3607
  140POPC  H15C18642   5.964   3.305   2.221 -0.8714 -0.1626  0.2158
  140POPC   C1118643   6.175   3.115   2.282 -0.2626  0.1720 -0.7325
  140POPC  H11A18644   6.223   3.025   2.325  0.6669  0.7520 -0.5213
  140POPC  H11B18645   6.074   3.127   2.327 -0.7070  0.4695 -1.7757
  140POPC     P18646   6.403   3.244   2.300  0.5032 -0.1375 -0.4973
  140POPC   O1318647   6.446   3.377   2.345 -0.0508  0.1095 -0.5093
  140POPC   O1418648   6.440   3.204   2.160 -0.2209  0.0179 -0.8637
  140POPC   O1218649   6.243   3.241   2.317  0.0674  0.0827  0.1702
  140POPC   O1118650   6.452   3.122   2.389  0.5955  0.5496 -1.0603
  140POPC    C118651   6.395   3.109   2.521 -0.2111 -0.4224 -0.0089
  140POPC    HA18652   6.288   3.078   2.519 -1.3543  3.1625 -0.7805
  140POPC    HB18653   6.381   3.206   2.572 -1.5329  0.5909 -2.1725
  140POPC    C218654   6.483   3.018   2.611  0.2817 -0.3102  0.0490
  140POPC    HS18655   6.448   2.915   2.586  0.5511 -1.2939  3.2280
  140POPC   O2118656   6.457   3.047   2.752  0.6872  0.5099  0.4279
  140POPC   C2118657   6.333   3.009   2.793 -0.1975 -0.1700  0.7472
  140POPC   O2218658   6.258   2.928   2.735 -0.0032 -0.1075 -0.3640
  140POPC   C2218659   6.311   3.078   2.925  0.2718 -0.3115 -0.1854
  140POPC   H2R18660   6.212   3.059   2.970  0.4585  0.2573  0.4869
  140POPC   H2S18661   6.318   3.188   2.910  0.3336 -0.4949 -1.5847
  140POPC    C318662   6.637   3.054   2.593 -0.1778 -0.1481 -1.1928
  140POPC    HX18663   6.649   3.163   2.609  2.8988 -0.6958  0.9465
  140POPC    HY18664   6.673   3.023   2.493  2.8375 -2.4910  0.4750
  140POPC   O3118665   6.719   2.987   2.694  0.2149  0.5716 -0.4043
  140POPC   C3118666   6.763   2.867   2.664 -0.3248 -0.3193  0.7324
  140POPC   O3218667   6.732   2.799   2.570 -0.2852  0.6103 -0.3111
  140POPC   C3218668   6.868   2.825   2.772 -0.0562  0.0706  0.2093
  140POPC   H2X18669   6.950   2.899   2.766  0.9656 -0.7989  2.4867
  140POPC   H2Y18670   6.913   2.728   2.743  1.8066  0.2012  2.4482
  140POPC   C2318671   6.426   3.051   3.027 -0.2498 -0.0897  0.0605
  140POPC   H3R18672   6.523   3.046   2.972 -0.2366  1.9130 -0.1530
  140POPC   H3S18673   6.417   2.951   3.075 -0.9837 -0.9348 -1.7345
  140POPC   C2418674   6.449   3.160   3.131  0.5796  0.5744 -0.0910
  140POPC   H4R18675   6.366   3.156   3.205 -0.1414  0.0899 -0.9036
  140POPC   H4S18676   6.449   3.257   3.078  1.6935  0.2463 -0.7266
  140POPC   C2518677   6.586   3.149   3.195  0.3510 -0.0687 -0.2933
  140POPC   H5R18678   6.657   3.196   3.123  0.9405 -0.7171 -0.1415
  140POPC   H5S18679   6.629   3.047   3.208  0.6076  0.3868  3.8612
  140POPC   C2618680   6.600   3.233   3.323 -0.2510 -0.0984 -0.0370
  140POPC   H6R18681   6.567   3.339   3.311 -0.1666 -0.2243 -1.6972
  140POPC   H6S18682   6.703   3.231   3.363  0.1284  0.4170 -0.9622
  140POPC   C2718683   6.515   3.173   3.435 -0.1559 -0.6691 -0.2959
  140POPC   H7R18684   6.505   3.062   3.439  0.2235 -0.7415 -1.2663
  140POPC   H7S18685   6.414   3.212   3.412  0.2074  0.6582  0.2508
  140POPC   C2818686   6.536   3.224   3.581 -0.1080 -0.4467  0.1355
  140POPC   H8R18687   6.523   3.335   3.580 -0.8723 -0.5297 -0.8334
  140POPC   H8S18688   6.643   3.209   3.604 -0.1290 -2.4415 -0.8596
  140POPC   C2918689   6.436   3.170   3.684 -0.6773 -0.5343 -0.0741
  140POPC   H9118690   6.329   3.180   3.661 -0.3941  0.6928 -0.9612
  140POPC  C21018691   6.465   3.105   3.795  0.0526  0.4386 -0.3081
  140POPC  H10118692   6.379   3.092   3.863  1.7519 -1.7228  1.5945
  140POPC  C21118693   6.601   3.069   3.852  0.5265 -0.2436 -0.3418
  140POPC  H11R18694   6.676   3.076   3.771 -0.6642  1.0852 -1.3816
  140POPC  H11S18695   6.604   2.973   3.908  1.6537  0.6719  1.2551
  140POPC  C21218696   6.651   3.176   3.956  0.1516 -0.5452 -0.5228
  140POPC  H12R18697   6.561   3.206   4.015  0.8496  1.4862 -0.3955
  140POPC  H12S18698   6.689   3.265   3.901  1.5129 -0.4325  0.5254
  140POPC  C21318699   6.764   3.137   4.049  0.2879  0.2773  0.3409
  140POPC  H13R18700   6.849   3.113   3.982  2.3512  1.9297  2.1850
  140POPC  H13S18701   6.736   3.044   4.102  1.0247 -0.3694 -0.3880
  140POPC  C21418702   6.813   3.248   4.144 -0.9006 -0.1542 -0.0951
  140POPC  H14R18703   6.822   3.341   4.085  0.0808  1.3431  2.2838
  140POPC  H14S18704   6.915   3.220   4.178 -0.8874 -0.1190 -0.1057
  140POPC  C21518705   6.726   3.262   4.274  0.0701  0.6941  0.1068
  140POPC  H15R18706   6.732   3.163   4.322  0.8642  0.6694 -0.0301
  140POPC  H15S18707   6.618   3.263   4.246  0.1411 -3.1404 -0.7943
  140POPC  C21618708   6.754   3.379   4.368 -0.3459  0.1207 -0.8803
  140POPC  H16R18709   6.721   3.473   4.320 -0.5480 -0.3981 -1.7884
  140POPC  H16S18710   6.857   3.383   4.411 -0.2361 -0.2754 -1.0979
  140POPC  C21718711   6.667   3.357   4.491 -0.2121  0.4421 -0.3954
  140POPC  H17R18712   6.687   3.261   4.543 -2.5116  0.0150 -0.1544
  140POPC  H17S18713   6.563   3.347   4.452  0.7765  0.8848 -3.3836
  140POPC  C21818714   6.662   3.467   4.599 -0.4166 -0.0399  0.3377
  140POPC  H18R18715   6.594   3.546   4.560  0.2145  0.1519 -0.3816
  140POPC  H18S18716   6.762   3.513   4.610  0.6498 -2.2822  0.4885
  140POPC  H18T18717   6.621   3.430   4.696  1.6459  1.1547  1.7412
  140POPC   C3318718   6.818   2.819   2.921 -0.4542  0.7657 -0.5147
  140POPC   H3X18719   6.737   2.743   2.922 -2.5331  2.8309 -1.4615
  140POPC   H3Y18720   6.766   2.915   2.938  0.2266  0.9468  0.6487
  140POPC   C3418721   6.941   2.804   3.021  0.0933  0.2165 -0.3650
  140POPC   H4X18722   7.013   2.884   2.990  3.3802 -3.1041 -2.0670
  140POPC   H4Y18723   6.993   2.706   3.013 -2.0180 -0.9577 -0.3394
  140POPC   C3518724   6.894   2.823   3.163 -0.4420 -0.0134  0.7435
  140POPC   H5X18725   6.870   2.931   3.170  0.7787  0.3192  0.0513
  140POPC   H5Y18726   6.983   2.793   3.224  1.2312  0.7483 -1.2106
  140POPC   C3618727   6.777   2.736   3.209 -0.0522 -0.0322  0.0182
  140POPC   H6X18728   6.765   2.646   3.144 -0.5568  0.5340 -0.6940
  140POPC   H6Y18729   6.689   2.788   3.166 -0.5744 -0.8639  0.0520
  140POPC   C3718730   6.767   2.724   3.361  0.0602  0.3418 -0.0072
  140POPC   H7X18731   6.850   2.666   3.406  0.4484  0.6099 -0.3730
  140POPC   H7Y18732   6.669   2.675   3.379  0.1969  0.2172  0.4050
  140POPC   C3818733   6.755   2.854   3.441  0.0207 -0.1199  0.7818
  140POPC   H8X18734   6.674   2.916   3.397  0.3557  0.4047  0.8923
  140POPC   H8Y18735   6.849   2.913   3.434  0.1909 -0.5879 -1.4233
  140POPC   C3918736   6.721   2.827   3.589  0.0872  0.2952 -0.0441
  140POPC   H9X18737   6.620   2.781   3.598 -0.5963  1.6733 -0.2241
  140POPC   H9Y18738   6.710   2.922   3.646  1.4638  0.2291  0.3566
  140POPC  C31018739   6.835   2.742   3.645  0.3527  0.7558  0.0269
  140POPC  H10X18740   6.926   2.779   3.592 -0.2776  1.3153 -0.6842
  140POPC  H10Y18741   6.799   2.638   3.626  0.2457  0.3550  2.2367
  140POPC  C31118742   6.850   2.763   3.795 -0.4676 -0.1496  0.2796
  140POPC  H11X18743   6.860   2.871   3.817 -1.3661  0.1903 -0.8642
  140POPC  H11Y18744   6.947   2.724   3.834  0.2270 -0.1407 -1.3335
  140POPC  C31218745   6.749   2.696   3.890 -0.3735 -0.5092  0.5630
  140POPC  H12X18746   6.761   2.587   3.870 -0.8801 -0.1030 -2.2610
  140POPC  H12Y18747   6.646   2.720   3.856  0.3810  0.4616 -1.1510
  140POPC  C31318748   6.774   2.727   4.035 -0.6152 -0.1603 -0.1157
  140POPC  H13X18749   6.773   2.838   4.044 -2.5202 -0.2190  1.0435
  140POPC  H13Y18750   6.865   2.686   4.084 -1.2402 -3.4597 -1.4696
  140POPC  C31418751   6.654   2.671   4.125 -0.0721  0.5269  0.0701
  140POPC  H14X18752   6.645   2.565   4.094  1.4955 -0.0967  1.5652
  140POPC  H14Y18753   6.566   2.725   4.086 -2.0267 -1.7444  1.0901
  140POPC  C31518754   6.667   2.673   4.278 -0.0887 -0.6433  0.1944
  140POPC  H15X18755   6.763   2.620   4.294 -0.0616 -0.6153  0.1235
  140POPC  H15Y18756   6.581   2.627   4.330  0.8630 -0.3169  2.1607
  140POPC  C31618757   6.695   2.817   4.327  0.0666 -0.0790  0.7862
  140POPC  H16X18758   6.728   2.818   4.433  0.8033 -0.1288  0.5619
  140POPC  H16Y18759   6.602   2.874   4.307 -0.3670 -0.9690  0.1936
  140POPC  H16Z18760   6.768   2.866   4.258 -1.6559  0.9987 -0.3359
  141POPC     N18761   3.300   1.422   1.582 -0.1666  0.9079  0.4346
  141POPC   C1218762   3.334   1.408   1.723  0.5323  0.8349 -1.6472
  141POPC  H12A18763   3.259   1.456   1.784 -0.0634 -0.9053 -0.9597
  141POPC  H12B18764   3.431   1.454   1.729  0.4819  0.7855  0.0315
  141POPC   C1318765   3.388   1.335   1.499  0.3091  0.1327 -0.1197
  141POPC  H13A18766   3.493   1.360   1.500  0.7604 -1.4825 -1.7011
  141POPC  H13B18767   3.382   1.231   1.527 -2.0965 -0.0472 -1.0491
  141POPC  H13C18768   3.380   1.348   1.392  1.6723 -2.5674 -0.6186
  141POPC   C1418769   3.159   1.385   1.551  0.4742 -0.5468  0.2296
  141POPC  H14A18770   3.099   1.465   1.593 -1.0110 -1.5476  0.0717
  141POPC  H14B18771   3.129   1.361   1.450 -2.9282 -0.6203  1.1124
  141POPC  H14C18772   3.133   1.297   1.608 -1.8677 -1.5423 -2.1335
  141POPC   C1518773   3.335   1.560   1.552  0.1457 -0.0598  0.3987
  141POPC  H15A18774   3.432   1.593   1.584  0.3377 -0.4083  0.1888
  141POPC  H15B18775   3.259   1.624   1.594  0.7252  1.8541 -1.2910
  141POPC  H15C18776   3.321   1.581   1.447 -2.3062  0.6565  0.8006
  141POPC   C1118777   3.333   1.261   1.780 -0.0714 -1.3852  0.1981
  141POPC  H11A18778   3.239   1.210   1.750 -0.5226  0.1622 -1.1921
  141POPC  H11B18779   3.336   1.262   1.891  0.6481  0.8152  0.2143
  141POPC     P18780   3.594   1.225   1.781 -0.8046 -0.0057  0.1073
  141POPC   O1318781   3.615   1.372   1.767 -0.6702 -0.0227 -0.0790
  141POPC   O1418782   3.690   1.132   1.717 -0.0419  0.2679 -0.5336
  141POPC   O1218783   3.444   1.187   1.733  0.9511 -0.7131  0.3273
  141POPC   O1118784   3.583   1.195   1.929  0.3270  0.6103  0.1357
  141POPC    C118785   3.593   1.061   1.988  0.4539  0.0647 -0.6900
  141POPC    HA18786   3.670   1.002   1.933  0.5083  0.4952 -1.0820
  141POPC    HB18787   3.495   1.010   1.979 -0.5432  1.1791  2.6047
  141POPC    C218788   3.644   1.076   2.131  0.5718  0.2847 -0.1265
  141POPC    HS18789   3.614   0.982   2.180 -0.1811  0.5014 -0.1549
  141POPC   O2118790   3.589   1.185   2.201  0.3292 -0.0943  0.7268
  141POPC   C2118791   3.462   1.162   2.233  0.1201  0.0040  0.2178
  141POPC   O2218792   3.396   1.062   2.208  0.4410  0.6413  0.7564
  141POPC   C2218793   3.410   1.294   2.295  0.0944 -0.2646 -0.1979
  141POPC   H2R18794   3.362   1.349   2.212 -1.1516  1.0619  1.3478
  141POPC   H2S18795   3.502   1.350   2.323  0.3831 -0.1226 -1.3787
  141POPC    C318796   3.792   1.080   2.137 -0.6082 -1.1716 -0.4359
  141POPC    HX18797   3.808   1.177   2.086 -2.5293  0.0066  1.0678
  141POPC    HY18798   3.839   0.990   2.091 -2.1420 -1.7308 -0.9810
  141POPC   O3118799   3.840   1.085   2.274  1.0524  0.7314  0.1166
  141POPC   C3118800   3.948   1.157   2.284  0.8356  0.3697  0.4176
  141POPC   O3218801   4.011   1.199   2.191 -0.0257  0.5293 -0.5179
  141POPC   C3218802   3.973   1.185   2.433 -0.2735 -0.5625 -0.2688
  141POPC   H2X18803   4.044   1.271   2.441 -1.0484  0.1249 -0.7419
  141POPC   H2Y18804   4.009   1.092   2.482  0.5360  0.3069  0.8639
  141POPC   C2318805   3.306   1.295   2.418  0.2712 -0.1095  0.3321
  141POPC   H3R18806   3.205   1.280   2.375  0.7716 -1.8363 -0.3082
  141POPC   H3S18807   3.315   1.383   2.485 -1.5180  1.2040 -1.0680
  141POPC   C2418808   3.326   1.177   2.513 -0.0020  0.0266  0.4425
  141POPC   H4R18809   3.309   1.081   2.459  1.3984  1.0571 -1.9939
  141POPC   H4S18810   3.256   1.188   2.598 -1.0928 -0.6105 -0.3492
  141POPC   C2518811   3.461   1.170   2.572 -0.8577  0.0982 -0.6869
  141POPC   H5R18812   3.528   1.148   2.486  0.4828 -1.0555  0.5878
  141POPC   H5S18813   3.495   1.258   2.631  1.9868 -1.5215  0.3167
  141POPC   C2618814   3.498   1.058   2.678 -0.0395  0.0148 -0.0330
  141POPC   H6R18815   3.606   1.032   2.667 -0.3488 -1.5118  0.2864
  141POPC   H6S18816   3.440   0.969   2.646  0.7443 -0.9643  1.1818
  141POPC   C2718817   3.463   1.096   2.822  0.2548 -0.2575  0.2108
  141POPC   H7R18818   3.355   1.124   2.815  0.2795 -0.1644  0.1992
  141POPC   H7S18819   3.515   1.185   2.864 -0.4035 -0.4009  1.3860
  141POPC   C2818820   3.486   0.973   2.917  1.0367 -0.6474  0.7230
  141POPC   H8R18821   3.426   0.888   2.878 -3.1785  1.3102  2.3108
  141POPC   H8S18822   3.440   0.999   3.014  0.4155 -0.8142  0.4808
  141POPC   C2918823   3.623   0.925   2.934  0.4690  0.5966 -0.3371
  141POPC   H9118824   3.689   0.906   2.847  2.6045  1.4298  1.0144
  141POPC  C21018825   3.688   0.890   3.049  0.3718  0.2161 -0.5116
  141POPC  H10118826   3.797   0.878   3.048  0.4053 -0.0629  1.5846
  141POPC  C21118827   3.616   0.884   3.178 -0.7544  0.2662 -0.2479
  141POPC  H11R18828   3.629   0.785   3.227  1.7978 -0.2704 -1.7982
  141POPC  H11S18829   3.506   0.891   3.178 -1.0496 -2.7162  1.6181
  141POPC  C21218830   3.685   0.985   3.277 -0.2921 -0.2204  0.0820
  141POPC  H12R18831   3.659   1.086   3.239 -1.6753 -0.3393  0.6842
  141POPC  H12S18832   3.796   0.977   3.280 -0.3333 -1.0725 -0.2658
  141POPC  C21318833   3.622   0.973   3.415  0.0174  0.0648  0.3601
  141POPC  H13R18834   3.640   0.875   3.463 -0.6427 -0.4206 -0.3434
  141POPC  H13S18835   3.511   0.980   3.413 -0.0967 -0.9253  2.0601
  141POPC  C21418836   3.680   1.076   3.512 -0.0777  0.1463 -0.4655
  141POPC  H14R18837   3.788   1.062   3.537 -0.2006  1.4637  0.9519
  141POPC  H14S18838   3.627   1.058   3.608  1.3941 -0.7423  0.2228
  141POPC  C21518839   3.661   1.222   3.466 -0.7496 -0.2861 -0.3234
  141POPC  H15R18840   3.571   1.234   3.402 -0.1697 -0.0661 -1.1235
  141POPC  H15S18841   3.743   1.253   3.397  0.2255 -1.6409  0.1632
  141POPC  C21618842   3.650   1.333   3.571  0.1781  0.1983 -0.3833
  141POPC  H16R18843   3.577   1.286   3.640  1.0869 -1.7132 -0.6599
  141POPC  H16S18844   3.607   1.423   3.522  1.9893  1.3636  0.0888
  141POPC  C21718845   3.776   1.360   3.658 -0.0809 -0.6629 -0.3710
  141POPC  H17R18846   3.843   1.272   3.668 -0.3845 -0.7736  0.8703
  141POPC  H17S18847   3.741   1.388   3.760  1.4413 -0.0558  0.0126
  141POPC  C21818848   3.850   1.482   3.597 -0.5227  0.6570  0.0310
  141POPC  H18R18849   3.867   1.467   3.488 -0.6361 -0.9439  0.2187
  141POPC  H18S18850   3.944   1.503   3.652  0.3308  1.1269 -1.5647
  141POPC  H18T18851   3.773   1.562   3.610 -0.3961  0.7526  0.1951
  141POPC   C3318852   3.841   1.211   2.516  0.0185 -0.4383  0.1054
  141POPC   H3X18853   3.774   1.124   2.535 -1.7163  0.8521  0.2140
  141POPC   H3Y18854   3.778   1.271   2.446  1.6582 -0.8193 -1.8013
  141POPC   C3418855   3.861   1.279   2.658 -0.0439  0.5060  0.3360
  141POPC   H4X18856   3.759   1.300   2.695 -1.4508 -4.7291  0.3012
  141POPC   H4Y18857   3.916   1.371   2.629  0.1197 -0.4767 -2.8633
  141POPC   C3518858   3.921   1.181   2.762 -0.2880 -0.2526  0.2186
  141POPC   H5X18859   4.015   1.132   2.728 -0.0574  0.3554 -0.0399
  141POPC   H5Y18860   3.848   1.099   2.781 -0.0730 -0.0456  2.1270
  141POPC   C3618861   3.971   1.240   2.893  0.3657 -0.6742  0.1908
  141POPC   H6X18862   4.015   1.340   2.871  1.1194 -0.8648  0.7810
  141POPC   H6Y18863   4.050   1.182   2.944 -0.5679 -0.3222  2.1162
  141POPC   C3718864   3.846   1.242   2.985  0.4969 -0.7565  0.0235
  141POPC   H7X18865   3.837   1.140   3.027  1.4478 -1.2565 -0.9549
  141POPC   H7Y18866   3.753   1.265   2.929 -0.4601 -0.4133  1.6660
  141POPC   C3818867   3.863   1.349   3.092 -0.1753  0.3760 -0.3073
  141POPC   H8X18868   3.791   1.319   3.171  0.9479 -0.3791  0.4608
  141POPC   H8Y18869   3.824   1.446   3.054  0.9051  0.6798 -0.6895
  141POPC   C3918870   3.996   1.369   3.164 -0.5093 -0.3328  0.4720
  141POPC   H9X18871   3.981   1.445   3.243 -0.7900 -1.0157  1.0896
  141POPC   H9Y18872   4.070   1.418   3.097  0.4154  1.2456  2.5369
  141POPC  C31018873   4.058   1.241   3.233  0.2514 -0.2220 -0.1405
  141POPC  H10X18874   4.047   1.160   3.157 -0.6508 -0.6831  0.4695
  141POPC  H10Y18875   3.991   1.213   3.317 -0.8776 -1.4001 -1.3771
  141POPC  C31118876   4.202   1.260   3.265 -0.1770  0.1112  0.8208
  141POPC  H11X18877   4.256   1.290   3.173  2.0457 -0.7197  1.8011
  141POPC  H11Y18878   4.253   1.166   3.296 -0.7732  0.0866  1.7570
  141POPC  C31218879   4.223   1.370   3.365 -0.8265  0.0943 -0.0401
  141POPC  H12X18880   4.167   1.463   3.341 -1.9330 -0.2519  1.0931
  141POPC  H12Y18881   4.332   1.390   3.377 -0.8926 -0.6833  2.4842
  141POPC  C31318882   4.180   1.332   3.510 -0.0976  0.1395 -0.3149
  141POPC  H13X18883   4.218   1.231   3.534 -0.0664  0.7252  2.4362
  141POPC  H13Y18884   4.070   1.336   3.525 -0.1564  1.0590 -0.9253
  141POPC  C31418885   4.235   1.435   3.606 -0.4265 -0.0981 -0.2693
  141POPC  H14X18886   4.177   1.530   3.603  1.5102  1.1976  1.1313
  141POPC  H14Y18887   4.342   1.454   3.584 -0.3013  0.9022  1.0947
  141POPC  C31518888   4.208   1.395   3.750  0.0444  0.2686  0.1096
  141POPC  H15X18889   4.287   1.320   3.771 -1.3675 -1.3229  0.0064
  141POPC  H15Y18890   4.106   1.351   3.763  0.5313 -0.6206  1.1082
  141POPC  C31618891   4.211   1.516   3.850  0.1322 -0.2463  0.1636
  141POPC  H16X18892   4.143   1.599   3.821  0.2498 -0.0918  0.3230
  141POPC  H16Y18893   4.312   1.562   3.857 -0.1525  0.2095  1.6782
  141POPC  H16Z18894   4.174   1.481   3.949 -0.0252 -1.6693 -0.3833
  142POPC     N18895   3.024   0.974   1.994 -0.0482 -0.1836  0.3516
  142POPC   C1218896   2.929   0.863   2.039  0.1290 -0.1035 -0.8418
  142POPC  H12A18897   2.846   0.912   2.089  2.3778  1.7940  1.3023
  142POPC  H12B18898   2.981   0.809   2.116 -0.5131  1.6393  0.8900
  142POPC   C1318899   2.952   1.057   1.890  0.1469 -0.7888  0.1291
  142POPC  H13A18900   2.935   0.996   1.803  1.8645  0.2664 -0.9918
  142POPC  H13B18901   2.866   1.098   1.942  0.6768  0.7794 -0.1985
  142POPC  H13C18902   3.012   1.139   1.853 -1.2106 -0.1529 -0.7465
  142POPC   C1418903   3.076   1.065   2.106  0.8749 -0.0628 -0.1854
  142POPC  H14A18904   2.985   1.110   2.143  0.6306  0.1850 -1.0693
  142POPC  H14B18905   3.127   1.012   2.185 -0.1107 -0.7850 -0.0090
  142POPC  H14C18906   3.138   1.141   2.061  0.7649  0.4413  0.4886
  142POPC   C1518907   3.145   0.911   1.932  0.3899  0.8909 -0.2186
  142POPC  H15A18908   3.224   0.884   2.001  2.5129  4.2824 -1.1161
  142POPC  H15B18909   3.197   0.973   1.861  1.8432  0.9266  0.8354
  142POPC  H15C18910   3.110   0.824   1.879 -0.1852 -1.0013  2.9553
  142POPC   C1118911   2.882   0.767   1.943  0.2731  0.1839 -0.0731
  142POPC  H11A18912   2.821   0.689   1.993 -0.5430  0.3063 -0.8431
  142POPC  H11B18913   2.969   0.718   1.895  0.6482 -0.7148  1.4649
  142POPC     P18914   2.648   0.872   1.883  0.0042 -0.3756  0.2815
  142POPC   O1318915   2.551   0.784   1.806 -0.0850  0.3094 -0.1467
  142POPC   O1418916   2.638   1.020   1.857 -0.2251  0.0857 -0.4142
  142POPC   O1218917   2.793   0.820   1.848  0.0829 -0.1316  0.5148
  142POPC   O1118918   2.629   0.849   2.039  0.0206  0.2456  0.7284
  142POPC    C118919   2.508   0.888   2.105  0.2333  0.0442 -0.0851
  142POPC    HA18920   2.445   0.800   2.128  0.2888  0.2271  0.8405
  142POPC    HB18921   2.449   0.963   2.048 -0.9495 -1.0754 -0.3901
  142POPC    C218922   2.531   0.949   2.247  0.5463  0.1964  0.0319
  142POPC    HS18923   2.561   1.055   2.240 -0.0912  0.4024  0.2712
  142POPC   O2118924   2.620   0.873   2.328  0.6795  0.1304  0.0498
  142POPC   C2118925   2.745   0.913   2.332  0.3652 -0.6833  0.6584
  142POPC   O2218926   2.787   1.010   2.267  0.1551 -0.2690  0.1979
  142POPC   C2218927   2.824   0.827   2.427  0.3724  0.0611  0.0542
  142POPC   H2R18928   2.854   0.732   2.379  0.9716 -0.5723  1.6240
  142POPC   H2S18929   2.761   0.798   2.514  0.9983 -3.2088 -0.4491
  142POPC    C318930   2.397   0.961   2.319  0.6090  0.1137 -0.0189
  142POPC    HX18931   2.329   0.878   2.289  0.3841  0.3477 -0.1652
  142POPC    HY18932   2.348   1.053   2.279  0.7838  0.6619  0.9892
  142POPC   O3118933   2.408   0.962   2.460  0.0928  0.2209  0.4351
  142POPC   C3118934   2.436   1.091   2.502 -0.5324  0.4331 -0.7447
  142POPC   O3218935   2.447   1.183   2.428 -0.7426  0.4484  0.3266
  142POPC   C3218936   2.434   1.095   2.655 -0.1622  0.2112 -0.2230
  142POPC   H2X18937   2.352   1.030   2.694 -0.3671  1.2582  1.1518
  142POPC   H2Y18938   2.415   1.202   2.678  1.3645  0.5545 -0.4578
  142POPC   C2318939   2.963   0.888   2.475 -0.1018  0.1698 -0.4267
  142POPC   H3R18940   2.938   0.985   2.524 -1.7035 -0.5937  0.3653
  142POPC   H3S18941   3.012   0.905   2.377  1.2208  0.3410  0.2471
  142POPC   C2418942   3.025   0.793   2.576  0.1545  0.0355  0.0610
  142POPC   H4R18943   3.014   0.687   2.547 -2.1780 -0.1278  1.3477
  142POPC   H4S18944   2.974   0.798   2.675  0.0628 -2.6277  0.2061
  142POPC   C2518945   3.177   0.825   2.598  0.3243 -0.9300  0.3385
  142POPC   H5R18946   3.190   0.932   2.625  0.8354 -1.0128  0.4283
  142POPC   H5S18947   3.226   0.796   2.503 -1.1515 -0.1990 -0.6760
  142POPC   C2618948   3.241   0.744   2.717  0.3244 -0.4179 -0.7080
  142POPC   H6R18949   3.351   0.760   2.723 -0.0304  1.7985  1.1486
  142POPC   H6S18950   3.216   0.636   2.709  1.0662 -0.5762 -0.9200
  142POPC   C2718951   3.192   0.775   2.858 -0.1373  0.5808 -0.9797
  142POPC   H7R18952   3.082   0.768   2.850 -0.0784 -0.4974 -0.9487
  142POPC   H7S18953   3.225   0.878   2.882 -1.2137  0.6493  0.2632
  142POPC   C2818954   3.253   0.667   2.955  0.6247 -0.4777 -0.2507
  142POPC   H8R18955   3.361   0.687   2.940  0.6458 -1.9157 -2.4929
  142POPC   H8S18956   3.233   0.568   2.910  1.0948 -0.6330 -0.1276
  142POPC   C2918957   3.186   0.687   3.089 -0.6092  0.4063  0.2882
  142POPC   H9118958   3.152   0.789   3.109 -2.7398  0.0162 -0.9777
  142POPC  C21018959   3.163   0.589   3.179 -0.3607  0.1836 -0.6461
  142POPC  H10118960   3.108   0.624   3.267 -1.5733 -0.3630 -1.1549
  142POPC  C21118961   3.187   0.442   3.168  0.3380  0.9685 -0.2021
  142POPC  H11R18962   3.296   0.426   3.184 -0.1939 -0.6179  2.6083
  142POPC  H11S18963   3.169   0.404   3.065  0.8370 -1.9495  0.6746
  142POPC  C21218964   3.105   0.363   3.270  0.5561 -0.2168  0.1798
  142POPC  H12R18965   3.123   0.421   3.363 -0.3414  0.8141 -0.2670
  142POPC  H12S18966   3.136   0.258   3.288  1.9174  0.0917 -0.2351
  142POPC  C21318967   2.950   0.357   3.236  0.1239 -0.3225 -0.3107
  142POPC  H13R18968   2.938   0.338   3.127 -0.1860  2.3205 -0.8058
  142POPC  H13S18969   2.908   0.457   3.264  1.2829  0.8731 -2.5778
  142POPC  C21418970   2.866   0.249   3.309  0.8540 -0.2704  0.3298
  142POPC  H14R18971   2.882   0.257   3.419  4.2636 -1.0103  0.0198
  142POPC  H14S18972   2.891   0.149   3.268  2.6919  1.1729 -2.3670
  142POPC  C21518973   2.719   0.280   3.280 -0.0339 -0.1210  0.5801
  142POPC  H15R18974   2.712   0.290   3.170 -0.9689 -3.7860  0.1686
  142POPC  H15S18975   2.705   0.383   3.320 -0.0664 -0.3213  1.0902
  142POPC  C21618976   2.618   0.179   3.335  0.3635  0.4271 -0.7678
  142POPC  H16R18977   2.625   0.075   3.296 -2.3839 -0.0531 -0.1190
  142POPC  H16S18978   2.518   0.215   3.305 -0.4872 -1.1277  0.0858
  142POPC  C21718979   2.635   0.160   3.488 -0.0963 -0.1052 -0.4688
  142POPC  H17R18980   2.645   0.262   3.531 -1.1563 -0.3010  0.2811
  142POPC  H17S18981   2.728   0.101   3.499 -0.1109 -0.4338 -1.9638
  142POPC  C21818982   2.521   0.092   3.561 -0.6201 -0.7336  0.5769
  142POPC  H18R18983   2.553   0.078   3.667  2.1423  2.4672  0.3419
  142POPC  H18S18984   2.499  -0.002   3.507  0.0476 -0.2085 -0.6427
  142POPC  H18T18985   2.430   0.154   3.545 -1.2074 -1.2452  1.7930
  142POPC   C3318986   2.566   1.062   2.734 -0.3697  0.2062 -0.5023
  142POPC   H3X18987   2.605   0.965   2.698  1.0521  0.7376 -0.4580
  142POPC   H3Y18988   2.528   1.044   2.837 -0.1877  2.6491  0.0512
  142POPC   C3418989   2.669   1.173   2.734  0.0853 -0.2122 -0.4155
  142POPC   H4X18990   2.645   1.257   2.802  2.1029 -2.5281  3.5401
  142POPC   H4Y18991   2.696   1.212   2.633  0.7744  1.7379  0.4670
  142POPC   C3518992   2.801   1.122   2.795 -0.8384  0.8305 -0.1407
  142POPC   H5X18993   2.821   1.022   2.750 -0.1211  0.3689  1.1400
  142POPC   H5Y18994   2.766   1.110   2.900 -0.0092 -1.2943 -0.0630
  142POPC   C3618995   2.931   1.207   2.785  0.0693 -0.2977  0.0555
  142POPC   H6X18996   2.921   1.309   2.829  1.9981 -0.2608  0.4794
  142POPC   H6Y18997   2.946   1.217   2.675  1.3954  0.9270  0.3123
  142POPC   C3718998   3.052   1.149   2.847 -0.3395  0.1989 -0.1135
  142POPC   H7X18999   3.140   1.217   2.840 -2.1951  2.7297  0.1324
  142POPC   H7Y19000   3.066   1.049   2.800  0.4514  0.3320 -0.1841
  142POPC   C3819001   3.031   1.123   2.994 -0.0454 -0.7715 -0.4151
  142POPC   H8X19002   2.973   1.030   3.014  1.1510 -1.1075  1.7003
  142POPC   H8Y19003   2.976   1.206   3.041  0.5125 -0.9289  0.5257
  142POPC   C3919004   3.155   1.110   3.073  0.1952  0.3978  0.4515
  142POPC   H9X19005   3.235   1.182   3.045  1.2766 -0.2124  1.8021
  142POPC   H9Y19006   3.199   1.010   3.052  0.5110 -0.0039  2.7322
  142POPC  C31019007   3.138   1.130   3.226 -0.0624 -0.1745 -0.2303
  142POPC  H10X19008   3.111   1.034   3.275  1.7232 -0.1060  0.9853
  142POPC  H10Y19009   3.063   1.209   3.245  2.0796  1.3657  2.5258
  142POPC  C31119010   3.266   1.175   3.298  0.8013 -0.3043 -0.1393
  142POPC  H11X19011   3.302   1.268   3.248 -0.8006  0.7527  0.5943
  142POPC  H11Y19012   3.349   1.101   3.295  2.1722  1.2029 -1.4812
  142POPC  C31219013   3.246   1.199   3.450 -0.1299  0.0890 -0.4021
  142POPC  H12X19014   3.143   1.239   3.459  0.7597  2.4225 -0.0107
  142POPC  H12Y19015   3.319   1.277   3.479  0.1171  0.1028 -1.0621
  142POPC  C31319016   3.277   1.081   3.542 -0.4498 -0.4830  0.2328
  142POPC  H13X19017   3.236   1.101   3.644 -0.7048  0.3667 -0.0302
  142POPC  H13Y19018   3.387   1.073   3.550 -0.3160  0.1916 -0.7599
  142POPC  C31419019   3.224   0.945   3.489  0.3513 -0.4490 -0.3568
  142POPC  H14X19020   3.242   0.916   3.383 -1.3777  1.1610 -1.1451
  142POPC  H14Y19021   3.113   0.947   3.481  0.4545  1.2004 -1.9638
  142POPC  C31519022   3.286   0.831   3.573  0.2137 -0.1238 -0.4991
  142POPC  H15X19023   3.258   0.850   3.679 -1.9379 -1.5376 -0.7486
  142POPC  H15Y19024   3.395   0.823   3.556  0.5072  1.2054  0.5438
  142POPC  C31619025   3.235   0.686   3.556  0.3220 -0.2349  0.1170
  142POPC  H16X19026   3.235   0.665   3.447 -0.7531  2.4544 -0.4776
  142POPC  H16Y19027   3.134   0.674   3.601  0.3453  2.3679  1.0657
  142POPC  H16Z19028   3.310   0.615   3.596  0.4272  0.5185  1.3201
  143POPC     N19029   2.663   6.162   1.916 -0.2954 -0.5888  0.1249
  143POPC   C1219030   2.698   6.312   1.894  0.1877  0.3860 -0.8891
  143POPC  H12A19031   2.616   6.374   1.861  1.3338  2.7487  0.4684
  143POPC  H12B19032   2.769   6.332   1.815 -0.9274 -1.2205 -2.3973
  143POPC   C1319033   2.794   6.082   1.936  0.3628 -1.3174 -0.4294
  143POPC  H13A19034   2.772   5.980   1.966  0.0815 -1.2503 -0.4061
  143POPC  H13B19035   2.845   6.071   1.841  1.2251  1.0639 -0.2937
  143POPC  H13C19036   2.855   6.131   2.009 -1.7011 -0.0967  0.5743
  143POPC   C1419037   2.581   6.148   2.034  0.4432  0.8876 -0.0849
  143POPC  H14A19038   2.625   6.201   2.117 -0.5655  0.7460  0.5618
  143POPC  H14B19039   2.487   6.200   2.023  0.7017  1.4753  0.4616
  143POPC  H14C19040   2.560   6.043   2.052  0.5792  1.0743  1.2203
  143POPC   C1519041   2.615   6.097   1.788 -0.3576  0.3125 -0.3435
  143POPC  H15A19042   2.606   5.992   1.811  3.2150 -0.0771 -0.1295
  143POPC  H15B19043   2.695   6.105   1.716  0.1383 -2.8437 -0.2815
  143POPC  H15C19044   2.531   6.145   1.739  0.2789 -1.2717 -3.1358
  143POPC   C1119045   2.761   6.395   2.013 -0.5999  0.1567 -0.1659
  143POPC  H11A19046   2.700   6.383   2.105  0.8921  2.9655  1.2942
  143POPC  H11B19047   2.771   6.503   1.989  2.8144 -0.5280 -2.5774
  143POPC     P19048   3.017   6.385   1.939  0.1619 -0.1261 -0.0048
  143POPC   O1319049   2.990   6.369   1.793 -0.3608  0.4870  0.1211
  143POPC   O1419050   3.141   6.320   1.984 -0.2435 -0.3110  0.4601
  143POPC   O1219051   2.892   6.339   2.032 -0.5079  0.4658  0.7943
  143POPC   O1119052   3.029   6.535   1.967 -0.2490  0.0169 -0.3840
  143POPC    C119053   3.109   6.574   2.084  0.2760 -0.2749  0.5499
  143POPC    HA19054   3.123   6.684   2.072  0.6823 -0.4141 -0.3132
  143POPC    HB19055   3.210   6.529   2.092  0.8744  0.9241  0.0127
  143POPC    C219056   3.037   6.549   2.218  0.4190 -0.6157  0.2083
  143POPC    HS19057   3.017   6.440   2.225  0.9168 -0.9194 -2.1270
  143POPC   O2119058   2.913   6.627   2.200  0.0885  0.3624  0.3593
  143POPC   C2119059   2.814   6.607   2.284  0.4189 -0.5740  0.5134
  143POPC   O2219060   2.810   6.520   2.368  0.2817  0.0011 -0.0841
  143POPC   C2219061   2.703   6.721   2.265 -0.4020 -0.1798  0.0020
  143POPC   H2R19062   2.607   6.670   2.243 -0.7739  1.6740 -3.3974
  143POPC   H2S19063   2.744   6.788   2.186  1.3961 -0.7190  0.4214
  143POPC    C319064   3.134   6.611   2.323 -0.1805 -0.5371  0.0788
  143POPC    HX19065   3.164   6.714   2.295 -0.6067  0.7182  3.7445
  143POPC    HY19066   3.223   6.544   2.317 -1.2625 -1.9059 -2.1666
  143POPC   O3119067   3.089   6.628   2.462 -0.2502  0.6600  0.6498
  143POPC   C3119068   3.063   6.519   2.523 -0.0871 -0.6389 -0.1651
  143POPC   O3219069   3.098   6.404   2.500  0.6061 -0.2322  0.1712
  143POPC   C3219070   2.990   6.558   2.654  0.8662  0.9277 -0.2636
  143POPC   H2X19071   2.899   6.606   2.612 -1.1980 -2.2879  0.2282
  143POPC   H2Y19072   3.049   6.636   2.707  0.1985  0.5271  1.1242
  143POPC   C2319073   2.685   6.802   2.392 -0.0568 -0.6277  0.1538
  143POPC   H3R19074   2.620   6.890   2.371  0.6424 -0.0272  0.4788
  143POPC   H3S19075   2.775   6.850   2.436  1.2553 -0.3923 -2.6016
  143POPC   C2419076   2.597   6.732   2.486  0.0300 -0.3709  0.0473
  143POPC   H4R19077   2.622   6.624   2.471  0.4581 -0.8793  3.6929
  143POPC   H4S19078   2.491   6.751   2.461  0.1228  3.8846  2.1401
  143POPC   C2519079   2.640   6.763   2.630 -0.2362  0.4004  0.8765
  143POPC   H5R19080   2.604   6.867   2.640  3.7787  2.4546 -2.9038
  143POPC   H5S19081   2.751   6.766   2.633 -0.2641  1.5630  0.8418
  143POPC   C2619082   2.577   6.669   2.736 -0.1784 -0.5559 -0.1816
  143POPC   H6R19083   2.599   6.564   2.706 -1.5857 -0.3729 -2.0058
  143POPC   H6S19084   2.465   6.669   2.739 -0.1894 -2.1642  1.8464
  143POPC   C2719085   2.636   6.693   2.878  0.0636  0.6776 -0.1622
  143POPC   H7R19086   2.593   6.788   2.915 -2.5133 -0.6748  0.5038
  143POPC   H7S19087   2.746   6.681   2.866 -0.1724  1.1112 -4.2644
  143POPC   C2819088   2.579   6.580   2.977  0.8181  0.0599  0.2331
  143POPC   H8R19089   2.603   6.482   2.933 -0.5289 -0.7251  1.1710
  143POPC   H8S19090   2.471   6.573   2.953  1.0712 -2.2240 -0.4127
  143POPC   C2919091   2.608   6.605   3.123 -0.0445  0.1011 -0.8571
  143POPC   H9119092   2.689   6.540   3.162  0.2144 -0.0341 -1.6025
  143POPC  C21019093   2.536   6.681   3.209 -0.2004  0.5062  0.2655
  143POPC  H10119094   2.560   6.687   3.316 -1.2251 -1.6855  0.6807
  143POPC  C21119095   2.417   6.767   3.166  0.1676 -0.3075  0.5871
  143POPC  H11R19096   2.326   6.717   3.206  0.5765 -2.5545 -1.1239
  143POPC  H11S19097   2.397   6.769   3.057 -0.7487 -0.6443  0.7378
  143POPC  C21219098   2.436   6.907   3.221  0.6844 -0.4661  0.6229
  143POPC  H12R19099   2.359   6.966   3.168  0.3810 -0.5118  1.0095
  143POPC  H12S19100   2.535   6.955   3.204  1.3951 -1.1795  2.4610
  143POPC  C21319101   2.421   6.916   3.382 -0.4081  0.7144 -0.1404
  143POPC  H13R19102   2.465   7.017   3.400  1.8476 -0.2628  0.1116
  143POPC  H13S19103   2.488   6.844   3.433 -0.2157  1.2131  0.3164
  143POPC  C21419104   2.278   6.903   3.420 -0.1844  0.0102 -0.1923
  143POPC  H14R19105   2.254   6.796   3.440 -0.2919 -0.5039 -2.6747
  143POPC  H14S19106   2.216   6.938   3.335  0.1558  1.2328  0.0462
  143POPC  C21519107   2.233   6.982   3.552  0.2745  0.2762 -0.2982
  143POPC  H15R19108   2.127   6.953   3.569  0.5339 -0.2629  0.4723
  143POPC  H15S19109   2.245   7.089   3.525 -1.9188  0.0840 -2.3367
  143POPC  C21619110   2.324   6.955   3.673 -0.5586 -0.0332 -0.3999
  143POPC  H16R19111   2.425   6.986   3.637 -1.1006  0.8058 -1.2249
  143POPC  H16S19112   2.326   6.845   3.692  0.7765  0.1682  0.8543
  143POPC  C21719113   2.293   7.020   3.802  0.6621  0.9334 -0.5334
  143POPC  H17R19114   2.279   7.130   3.811 -1.1865  0.6715  0.2722
  143POPC  H17S19115   2.368   7.001   3.882  0.6593  1.0907 -0.4920
  143POPC  C21819116   2.161   6.965   3.855  0.4636  0.1723  0.7905
  143POPC  H18R19117   2.081   6.970   3.778  1.3649 -0.3359 -0.1973
  143POPC  H18S19118   2.132   7.024   3.945  1.8473  0.6380  0.9566
  143POPC  H18T19119   2.167   6.856   3.875  1.0545  0.3571  1.7047
  143POPC   C3319120   2.947   6.441   2.745  0.2850 -0.2899 -0.3214
  143POPC   H3X19121   2.955   6.345   2.691 -2.8356 -0.3465 -0.8690
  143POPC   H3Y19122   2.839   6.465   2.760  0.6954  3.1001 -1.8891
  143POPC   C3419123   3.026   6.447   2.878 -0.8522  0.2068  0.3644
  143POPC   H4X19124   3.056   6.551   2.903 -0.1045  0.3888 -1.1675
  143POPC   H4Y19125   3.123   6.396   2.859 -1.3183 -0.5652  0.0445
  143POPC   C3519126   2.958   6.386   2.999  1.5543 -0.2053 -0.5924
  143POPC   H5X19127   2.934   6.277   2.992  0.9015 -0.3259  2.2502
  143POPC   H5Y19128   2.868   6.448   3.018  1.0900 -1.1268  0.3330
  143POPC   C3619129   3.049   6.392   3.126 -0.8941 -0.2595  0.6439
  143POPC   H6X19130   3.150   6.355   3.098 -0.6720  0.0015  1.1025
  143POPC   H6Y19131   3.006   6.331   3.209 -2.9899  0.3491  0.0687
  143POPC   C3719132   3.051   6.534   3.188 -0.3961  0.1356 -0.2697
  143POPC   H7X19133   2.943   6.558   3.205 -0.3685  1.9482 -2.1941
  143POPC   H7Y19134   3.087   6.610   3.115 -2.1952 -0.0952 -1.4683
  143POPC   C3819135   3.108   6.550   3.334 -0.3656  0.1749 -0.4429
  143POPC   H8X19136   3.118   6.658   3.361  0.2669  0.3717 -1.4066
  143POPC   H8Y19137   3.205   6.496   3.326 -1.5426 -2.1244  0.2156
  143POPC   C3919138   3.029   6.481   3.439 -0.4056  0.8477  0.0723
  143POPC   H9X19139   3.070   6.378   3.442 -1.4757  0.3452 -1.4429
  143POPC   H9Y19140   2.922   6.472   3.412 -0.6416  0.8602  0.9989
  143POPC  C31019141   3.052   6.544   3.577 -0.2447  0.5559  0.0413
  143POPC  H10X19142   2.969   6.512   3.643 -1.8033  0.9822 -1.6570
  143POPC  H10Y19143   3.034   6.651   3.554 -0.9346  0.3018 -0.6278
  143POPC  C31119144   3.194   6.532   3.639  0.1623 -0.3878 -0.6809
  143POPC  H11X19145   3.271   6.577   3.573  0.5513  0.4212  0.3017
  143POPC  H11Y19146   3.203   6.425   3.667  2.2828 -0.1165 -0.1565
  143POPC  C31219147   3.196   6.608   3.773 -0.0747 -0.8167  0.2155
  143POPC  H12X19148   3.299   6.592   3.811  0.4866  0.7766 -0.5496
  143POPC  H12Y19149   3.125   6.562   3.845  1.1095 -2.6194  0.2977
  143POPC  C31319150   3.169   6.763   3.781 -0.1474  0.5115  0.8038
  143POPC  H13X19151   3.060   6.783   3.782 -0.4715 -1.1017  0.2848
  143POPC  H13Y19152   3.210   6.806   3.687 -1.1368 -0.1571  0.0512
  143POPC  C31419153   3.239   6.809   3.914  0.1436 -0.0363  0.8330
  143POPC  H14X19154   3.344   6.772   3.903 -0.1021 -0.4809 -0.1768
  143POPC  H14Y19155   3.179   6.781   4.003  0.3018  1.8857  1.5896
  143POPC  C31519156   3.239   6.962   3.918 -0.3334  0.8418  0.3747
  143POPC  H15X19157   3.133   6.995   3.908 -0.2355  0.7998 -0.8712
  143POPC  H15Y19158   3.289   7.002   3.828  1.9027  0.7706  1.5118
  143POPC  C31619159   3.312   7.023   4.041  1.1572 -1.5013 -0.3295
  143POPC  H16X19160   3.418   6.993   4.029  1.6170  0.2151 -0.9168
  143POPC  H16Y19161   3.268   6.979   4.133  0.1031  0.3330  0.0927
  143POPC  H16Z19162   3.306   7.134   4.033  0.0046 -1.5025  0.3184
  144POPC     N19163   4.341   5.488   1.710 -0.4287  0.7280  0.1392
  144POPC   C1219164   4.309   5.639   1.704  0.3213 -0.3075 -0.6783
  144POPC  H12A19165   4.273   5.675   1.609  0.9467  2.8843  0.1990
  144POPC  H12B19166   4.406   5.685   1.713  0.2647 -0.4599  1.2225
  144POPC   C1319167   4.216   5.409   1.692  0.2684  0.4517 -0.2364
  144POPC  H13A19168   4.144   5.423   1.772  0.1570 -1.9361  0.1418
  144POPC  H13B19169   4.166   5.421   1.597 -2.1993  0.3893  0.9675
  144POPC  H13C19170   4.241   5.305   1.700 -0.2236  0.2535 -1.1555
  144POPC   C1419171   4.439   5.455   1.593 -0.0872 -0.5257  0.3675
  144POPC  H14A19172   4.533   5.502   1.616  0.4568 -0.7660 -1.2416
  144POPC  H14B19173   4.444   5.349   1.578 -0.5117 -0.2549 -2.0038
  144POPC  H14C19174   4.418   5.498   1.496  0.0629 -0.3286  0.4219
  144POPC   C1519175   4.414   5.439   1.839  0.1854 -0.0239 -0.0279
  144POPC  H15A19176   4.412   5.332   1.852  3.7455 -0.1064  0.9158
  144POPC  H15B19177   4.363   5.479   1.925  0.2355  0.4986 -0.2351
  144POPC  H15C19178   4.518   5.470   1.842  0.5251 -1.1065 -0.2775
  144POPC   C1119179   4.199   5.696   1.807  0.2865 -0.0669  0.7015
  144POPC  H11A19180   4.210   5.805   1.794  0.0209 -0.1590 -0.3242
  144POPC  H11B19181   4.227   5.672   1.912  0.4972 -0.2779  0.5995
  144POPC     P19182   3.953   5.748   1.722  0.1480  0.4932 -0.1435
  144POPC   O1319183   3.826   5.667   1.701  0.2196  0.2850 -0.1682
  144POPC   O1419184   4.004   5.814   1.602  1.0041 -0.3185 -0.5507
  144POPC   O1219185   4.064   5.652   1.778 -0.4552  0.0818 -0.1848
  144POPC   O1119186   3.926   5.850   1.838  0.1896  0.0320 -1.0044
  144POPC    C119187   3.895   5.792   1.970  0.1556 -0.5322  0.3263
  144POPC    HA19188   3.979   5.726   2.001 -0.1410 -0.1819  1.9836
  144POPC    HB19189   3.808   5.723   1.970  0.6208 -1.1446  1.0795
  144POPC    C219190   3.893   5.898   2.090 -0.0969  0.0821 -0.0785
  144POPC    HS19191   3.829   5.980   2.052  1.4861  2.3644  1.8460
  144POPC   O2119192   4.026   5.940   2.106  0.2390  0.1895 -0.3631
  144POPC   C2119193   4.050   6.060   2.156  0.3613  0.3376 -0.1627
  144POPC   O2219194   3.963   6.140   2.190  0.7592  0.2567 -0.2462
  144POPC   C2219195   4.200   6.091   2.158  0.1686 -0.3751 -0.0992
  144POPC   H2R19196   4.233   6.127   2.058  2.2698  0.9037  0.9943
  144POPC   H2S19197   4.252   5.995   2.178 -0.2876 -0.3153  1.5057
  144POPC    C319198   3.835   5.833   2.225 -0.6667 -0.7048  0.3539
  144POPC    HX19199   3.889   5.737   2.240 -0.5394 -1.1730 -2.5514
  144POPC    HY19200   3.730   5.799   2.211 -0.5272 -0.7069 -0.7936
  144POPC   O3119201   3.849   5.915   2.340  0.3820 -0.4697 -0.0470
  144POPC   C3119202   3.744   5.981   2.383  0.5235  0.2098 -0.2932
  144POPC   O3219203   3.639   5.986   2.326 -0.6863 -0.7059 -0.2491
  144POPC   C3219204   3.781   6.053   2.511 -0.6004 -0.3529  0.9829
  144POPC   H2X19205   3.774   6.158   2.477 -0.8009 -0.4956  0.5759
  144POPC   H2Y19206   3.891   6.050   2.527  0.3151  1.1763 -3.6213
  144POPC   C2319207   4.240   6.191   2.276  0.3233 -0.7196  0.2222
  144POPC   H3R19208   4.186   6.286   2.254  3.0594  0.5773 -1.4534
  144POPC   H3S19209   4.348   6.220   2.276  0.0097  0.5111 -0.5759
  144POPC   C2419210   4.213   6.144   2.416 -0.2698 -0.1731  0.0730
  144POPC   H4R19211   4.272   6.053   2.438  1.1554  0.9384  1.0145
  144POPC   H4S19212   4.104   6.125   2.422 -0.6156  1.7216  0.5262
  144POPC   C2519213   4.256   6.250   2.515  1.3398 -1.2432  0.0169
  144POPC   H5R19214   4.226   6.349   2.474 -2.9834 -1.9106  1.1331
  144POPC   H5S19215   4.366   6.259   2.526  0.9275  2.5502  4.7932
  144POPC   C2619216   4.190   6.238   2.655 -0.2302 -0.5300  0.7670
  144POPC   H6R19217   4.222   6.136   2.686  0.5045 -0.9251 -1.1270
  144POPC   H6S19218   4.080   6.237   2.638 -0.5178  3.7269  1.4355
  144POPC   C2719219   4.221   6.343   2.756  0.5569 -0.2847 -0.6225
  144POPC   H7R19220   4.208   6.437   2.699  2.2073  0.1955 -0.2683
  144POPC   H7S19221   4.327   6.334   2.789  0.4714  0.5320 -0.0780
  144POPC   C2819222   4.131   6.340   2.880 -0.1740 -0.1690 -0.2463
  144POPC   H8R19223   4.025   6.368   2.861 -0.9645 -2.3052  0.6007
  144POPC   H8S19224   4.159   6.426   2.944 -1.9784  0.7146 -0.5755
  144POPC   C2919225   4.128   6.209   2.952  0.2140  0.2363  0.1913
  144POPC   H9119226   4.096   6.129   2.884 -0.8911 -1.2329  2.3417
  144POPC  C21019227   4.194   6.183   3.064  0.8673 -0.3074  0.0531
  144POPC  H10119228   4.193   6.080   3.103  0.0807 -1.2180 -2.2154
  144POPC  C21119229   4.265   6.289   3.149 -0.0559  0.3978 -0.5652
  144POPC  H11R19230   4.243   6.394   3.122  1.1668  1.1299  1.0738
  144POPC  H11S19231   4.375   6.270   3.153  0.0360  1.0874  1.3377
  144POPC  C21219232   4.231   6.268   3.299 -0.2825  0.5707 -0.3494
  144POPC  H12R19233   4.270   6.178   3.351 -2.6471  0.1423  0.8665
  144POPC  H12S19234   4.120   6.266   3.313 -0.3401 -1.2778 -0.7829
  144POPC  C21319235   4.277   6.383   3.391 -0.4372 -0.0727  0.2121
  144POPC  H13R19236   4.234   6.480   3.360  0.0529  0.0463 -0.1162
  144POPC  H13S19237   4.386   6.398   3.372 -0.3997  0.4834  0.8229
  144POPC  C21419238   4.249   6.355   3.540  0.1111  0.1711  0.5243
  144POPC  H14R19239   4.305   6.268   3.580  0.8685  0.7482  0.7372
  144POPC  H14S19240   4.139   6.343   3.553  0.2171 -2.0370 -0.2310
  144POPC  C21519241   4.302   6.468   3.633  0.1086  0.3163  0.7535
  144POPC  H15R19242   4.253   6.567   3.619 -2.7713 -1.1008 -0.0638
  144POPC  H15S19243   4.412   6.472   3.625  0.2152  0.8897  2.1840
  144POPC  C21619244   4.282   6.440   3.779 -0.0896 -0.9613 -0.3379
  144POPC  H16R19245   4.343   6.353   3.811 -0.5459 -0.0697  3.4771
  144POPC  H16S19246   4.173   6.420   3.787 -0.6381  1.9366  0.5825
  144POPC  C21719247   4.325   6.559   3.869  0.6666 -0.0971  0.3395
  144POPC  H17R19248   4.274   6.542   3.967  0.5246 -1.8055 -0.0128
  144POPC  H17S19249   4.278   6.644   3.814  0.2675  0.0424  0.8841
  144POPC  C21819250   4.474   6.573   3.888 -0.5703  0.3266 -0.8881
  144POPC  H18R19251   4.529   6.482   3.920  4.5392  2.6481 -2.0716
  144POPC  H18S19252   4.499   6.651   3.962 -2.3700  1.5763 -1.5391
  144POPC  H18T19253   4.526   6.603   3.795  0.4601 -1.1626 -0.8282
  144POPC   C3319254   3.686   6.048   2.629  0.2282 -0.0596  0.7417
  144POPC   H3X19255   3.686   5.946   2.673  1.6833 -1.7850 -2.8876
  144POPC   H3Y19256   3.584   6.082   2.603  1.1037 -0.1379 -3.4569
  144POPC   C3419257   3.727   6.148   2.740 -0.3709 -0.0160 -0.3012
  144POPC   H4X19258   3.739   6.253   2.706  0.4680  0.4041  1.1976
  144POPC   H4Y19259   3.830   6.121   2.772  0.0099  1.9922  0.2963
  144POPC   C3519260   3.633   6.144   2.861  0.2224  0.4854  0.7371
  144POPC   H5X19261   3.531   6.144   2.816  0.5933 -0.8813 -0.1476
  144POPC   H5Y19262   3.650   6.237   2.920 -1.2922  2.1556 -1.2912
  144POPC   C3619263   3.657   6.025   2.962  0.1034 -0.3389 -0.2265
  144POPC   H6X19264   3.766   6.033   2.986 -0.2122 -1.6298  2.0146
  144POPC   H6Y19265   3.626   5.930   2.913  0.4564 -1.8323  2.2125
  144POPC   C3719266   3.571   6.041   3.087  0.2785 -0.7080  0.2266
  144POPC   H7X19267   3.473   6.064   3.038  1.2707  2.2736 -0.5795
  144POPC   H7Y19268   3.615   6.124   3.145 -0.9299  2.8470 -3.4658
  144POPC   C3819269   3.556   5.913   3.172 -0.2392  0.9710 -0.9222
  144POPC   H8X19270   3.655   5.863   3.180 -0.4162  0.5562 -1.2978
  144POPC   H8Y19271   3.485   5.839   3.129 -0.2816  0.5006 -0.0564
  144POPC   C3919272   3.526   5.941   3.318 -0.0708  0.0274  0.2938
  144POPC   H9X19273   3.450   6.022   3.328 -0.2506 -0.1139  0.0981
  144POPC   H9Y19274   3.616   5.983   3.367  0.3001 -2.1201  1.5564
  144POPC  C31019275   3.491   5.818   3.405 -0.8693 -0.2405 -0.3047
  144POPC  H10X19276   3.574   5.744   3.409 -0.4970  0.1633 -0.4985
  144POPC  H10Y19277   3.404   5.778   3.348 -0.7528  1.3035 -1.6128
  144POPC  C31119278   3.453   5.860   3.552  0.3990  0.1046 -0.3031
  144POPC  H11X19279   3.380   5.941   3.531  1.5598  1.2285 -0.0498
  144POPC  H11Y19280   3.539   5.909   3.601  1.2790 -1.6342 -0.0135
  144POPC  C31219281   3.385   5.748   3.630  0.1664 -0.0738 -0.0676
  144POPC  H12X19282   3.449   5.658   3.637 -0.5734 -0.8088 -1.9858
  144POPC  H12Y19283   3.292   5.713   3.580  0.6089 -0.3720 -0.6996
  144POPC  C31319284   3.329   5.795   3.762 -0.5707  0.9085  0.2343
  144POPC  H13X19285   3.262   5.884   3.757  0.5921  1.8007  0.1503
  144POPC  H13Y19286   3.415   5.834   3.821 -0.1444 -1.2819  1.1663
  144POPC  C31419287   3.283   5.679   3.859 -0.7212  0.0439 -0.7162
  144POPC  H14X19288   3.291   5.729   3.958  1.0814 -1.1428 -0.2137
  144POPC  H14Y19289   3.364   5.603   3.866 -1.7912 -1.1224 -0.8578
  144POPC  C31519290   3.141   5.622   3.835 -0.0022  0.4620 -0.1769
  144POPC  H15X19291   3.127   5.540   3.908  2.2110 -0.2886 -0.4960
  144POPC  H15Y19292   3.144   5.570   3.737  1.2678 -1.0375  0.6074
  144POPC  C31619293   3.026   5.720   3.846  0.1103  0.2832 -0.0013
  144POPC  H16X19294   3.024   5.775   3.942  0.2354 -2.6251  1.8195
  144POPC  H16Y19295   2.928   5.669   3.832 -0.3487  0.7658  1.3376
  144POPC  H16Z19296   3.027   5.790   3.759  1.3079 -2.1401 -2.0938
  145POPC     N19297   6.193   5.072   2.436  0.1208 -0.1968 -0.0782
  145POPC   C1219298   6.252   5.149   2.557  0.9288 -0.1150  0.0304
  145POPC  H12A19299   6.193   5.125   2.644  0.6143 -1.8569 -0.6216
  145POPC  H12B19300   6.249   5.257   2.545 -1.8224 -0.2596 -1.4929
  145POPC   C1319301   6.191   4.927   2.475 -0.4271 -0.0058 -0.3265
  145POPC  H13A19302   6.290   4.888   2.492 -0.4339  0.3067  0.4258
  145POPC  H13B19303   6.138   4.917   2.569  0.1906  0.6893  0.1020
  145POPC  H13C19304   6.137   4.871   2.400 -0.1754 -0.6587 -0.0232
  145POPC   C1419305   6.060   5.125   2.400  0.7905  0.8639 -0.4200
  145POPC  H14A19306   6.005   5.067   2.327 -1.6986 -0.6758  2.3945
  145POPC  H14B19307   5.999   5.124   2.490  0.4708  0.0636 -0.6346
  145POPC  H14C19308   6.063   5.228   2.370  0.0056  1.3279  0.9734
  145POPC   C1519309   6.276   5.086   2.310  0.2896 -0.0774  0.3225
  145POPC  H15A19310   6.382   5.084   2.334  1.0981  4.0721 -1.9543
  145POPC  H15B19311   6.264   5.181   2.260 -1.1802 -0.6554 -0.4791
  145POPC  H15C19312   6.248   5.012   2.237  0.0475 -0.2469  0.5855
  145POPC   C1119313   6.396   5.117   2.585 -0.0260  0.1665 -0.0417
  145POPC  H11A19314   6.419   5.008   2.583 -0.3549  0.1108 -1.1757
  145POPC  H11B19315   6.423   5.154   2.687  2.0133  1.3660 -0.9587
  145POPC     P19316   6.537   5.307   2.484  0.2952  0.0861  0.0708
  145POPC   O1319317   6.438   5.394   2.415 -0.1334 -0.5899  0.0516
  145POPC   O1419318   6.681   5.306   2.436 -0.2447  0.5562  0.0701
  145POPC   O1219319   6.489   5.158   2.491  0.5761 -0.4692 -0.4167
  145POPC   O1119320   6.538   5.362   2.628  0.4614 -0.0514  0.2030
  145POPC    C119321   6.652   5.405   2.696 -0.2524 -0.8781 -0.2720
  145POPC    HA19322   6.615   5.491   2.756 -0.9816 -0.7038 -0.9457
  145POPC    HB19323   6.746   5.427   2.641 -0.4360  0.1476 -0.2048
  145POPC    C219324   6.704   5.299   2.785  0.1008  0.1746  0.0315
  145POPC    HS19325   6.714   5.212   2.716 -0.2802 -0.2740  0.5279
  145POPC   O2119326   6.620   5.275   2.897  0.2634 -0.0387  0.1317
  145POPC   C2119327   6.645   5.171   2.965 -0.3214  0.1604  0.4014
  145POPC   O2219328   6.727   5.086   2.932 -0.3002  0.1830 -0.4259
  145POPC   C2219329   6.557   5.157   3.087  0.9163 -0.0955  0.5101
  145POPC   H2R19330   6.482   5.084   3.051  0.3218  1.3699 -1.4420
  145POPC   H2S19331   6.515   5.258   3.109  1.6375 -0.0278  1.6540
  145POPC    C319332   6.856   5.325   2.832 -0.0341 -0.7722  0.2521
  145POPC    HX19333   6.909   5.317   2.735  0.8858  0.7136  0.6019
  145POPC    HY19334   6.894   5.246   2.901 -2.0789 -0.4895  1.8070
  145POPC   O3119335   6.876   5.463   2.880  0.0775 -1.0638  0.3490
  145POPC   C3119336   6.855   5.470   3.011 -0.2954 -0.0417  0.9381
  145POPC   O3219337   6.839   5.373   3.081 -0.0452 -0.6296  0.3917
  145POPC   C3219338   6.846   5.611   3.062  0.3426 -0.1845 -0.2191
  145POPC   H2X19339   6.909   5.675   2.997  0.4034 -0.2408 -0.2155
  145POPC   H2Y19340   6.901   5.604   3.159  0.9782 -0.5911 -0.5988
  145POPC   C2319341   6.627   5.105   3.208 -0.9996  0.0993  0.0004
  145POPC   H3R19342   6.702   5.181   3.239 -0.0475 -0.9310  0.3115
  145POPC   H3S19343   6.677   5.010   3.179  3.3388  0.8546  3.7365
  145POPC   C2419344   6.536   5.081   3.330 -0.2501  0.3360  0.2378
  145POPC   H4R19345   6.473   4.991   3.311 -0.9341  0.5982  1.1755
  145POPC   H4S19346   6.475   5.173   3.345 -1.7978 -0.5784 -0.2762
  145POPC   C2519347   6.618   5.061   3.455  0.1897 -0.4585  0.1757
  145POPC   H5R19348   6.553   5.018   3.534  1.6437 -0.1909  1.5688
  145POPC   H5S19349   6.627   5.157   3.511  0.8773 -0.2936 -0.1910
  145POPC   C2619350   6.750   4.995   3.437 -0.5163  0.5308 -0.4772
  145POPC   H6R19351   6.823   5.052   3.376 -1.2022  2.5800  0.5273
  145POPC   H6S19352   6.733   4.895   3.392  0.8759 -0.7005  1.5702
  145POPC   C2719353   6.811   4.962   3.576  0.3138  0.4762 -0.5404
  145POPC   H7R19354   6.735   4.911   3.640  0.0351  1.6332  0.0812
  145POPC   H7S19355   6.844   5.050   3.635 -1.3076  0.5710  0.3058
  145POPC   C2819356   6.943   4.880   3.570  0.1163 -0.3568 -0.3530
  145POPC   H8R19357   6.982   4.872   3.674 -1.3282 -2.0686  0.1183
  145POPC   H8S19358   7.018   4.923   3.502 -0.8630  3.0499  0.5356
  145POPC   C2919359   6.920   4.737   3.533  0.2215 -0.7093  0.4080
  145POPC   H9119360   6.843   4.686   3.593  1.0415 -0.9429  1.2790
  145POPC  C21019361   6.977   4.659   3.444 -0.1951 -0.4228 -0.0742
  145POPC  H10119362   6.944   4.554   3.443  0.1937 -0.5484 -1.4362
  145POPC  C21119363   7.094   4.697   3.367  0.1004 -0.1235  0.1319
  145POPC  H11R19364   7.124   4.802   3.385 -0.5287  0.2479 -0.8731
  145POPC  H11S19365   7.062   4.686   3.261  0.1631 -1.5195  0.2427
  145POPC  C21219366   7.232   4.620   3.383  0.5354 -0.8339  0.5030
  145POPC  H12R19367   7.306   4.680   3.327  0.0465 -1.1642 -0.5113
  145POPC  H12S19368   7.235   4.524   3.329  2.0774 -1.2490  1.2744
  145POPC  C21319369   7.292   4.613   3.519  0.2410  0.2328 -0.0207
  145POPC  H13R19370   7.273   4.706   3.576 -0.7804  1.1136 -1.7104
  145POPC  H13S19371   7.400   4.610   3.493  0.0815 -0.0780 -0.6643
  145POPC  C21419372   7.255   4.482   3.593 -0.5448 -0.0769 -0.1078
  145POPC  H14R19373   7.260   4.400   3.519 -0.1717  0.4773 -0.7124
  145POPC  H14S19374   7.148   4.476   3.623  0.2006 -1.8345  2.5561
  145POPC  C21519375   7.358   4.448   3.709 -0.1711  0.7875 -0.1775
  145POPC  H15R19376   7.341   4.496   3.807 -1.1434 -0.3216  0.2267
  145POPC  H15S19377   7.458   4.475   3.669  0.3229 -2.0230 -1.0615
  145POPC  C21619378   7.362   4.296   3.729  1.1739  0.8501 -0.7552
  145POPC  H16R19379   7.454   4.274   3.788  1.1419 -2.3730 -1.7256
  145POPC  H16S19380   7.376   4.240   3.634 -0.8855 -0.7456 -0.1996
  145POPC  C21719381   7.231   4.238   3.806 -0.7089  0.1384  0.7420
  145POPC  H17R19382   7.199   4.147   3.751  0.3600 -0.9223  1.8263
  145POPC  H17S19383   7.149   4.313   3.803  1.5771  2.7888 -0.1541
  145POPC  C21819384   7.255   4.199   3.957  0.1830 -0.5441  0.3703
  145POPC  H18R19385   7.165   4.143   3.990 -1.5976  2.2648  0.5831
  145POPC  H18S19386   7.258   4.295   4.014  0.3742 -1.7713  2.5606
  145POPC  H18T19387   7.342   4.134   3.982 -0.7763 -1.0504  2.7438
  145POPC   C3319388   6.696   5.659   3.068  0.3282 -0.0966 -0.6820
  145POPC   H3X19389   6.651   5.615   3.159  1.2882  0.7583  0.2322
  145POPC   H3Y19390   6.639   5.625   2.979 -2.9181  1.8980  0.4452
  145POPC   C3419391   6.692   5.817   3.086  0.7070 -0.1998  0.2104
  145POPC   H4X19392   6.589   5.857   3.085  0.6679 -0.0981  2.5229
  145POPC   H4Y19393   6.728   5.849   2.986  1.8623  0.4681  0.8187
  145POPC   C3519394   6.777   5.876   3.210 -0.4359  0.3372 -0.6894
  145POPC   H5X19395   6.878   5.908   3.177 -0.3250 -1.0268 -1.7436
  145POPC   H5Y19396   6.809   5.791   3.273 -0.2032  0.1544 -1.0538
  145POPC   C3619397   6.710   5.996   3.284 -0.3379 -0.6735  0.0691
  145POPC   H6X19398   6.607   5.980   3.321 -0.2616 -2.4472 -0.4043
  145POPC   H6Y19399   6.698   6.076   3.207 -2.3100  0.0649  1.0937
  145POPC   C3719400   6.787   6.055   3.400 -0.3092 -0.2379 -0.0974
  145POPC   H7X19401   6.824   6.153   3.363  0.7707 -1.1895 -1.6654
  145POPC   H7Y19402   6.875   6.003   3.443 -1.5924 -1.5121  1.0835
  145POPC   C3819403   6.689   6.101   3.518 -0.4042 -0.0887 -0.0571
  145POPC   H8X19404   6.645   6.015   3.572  1.1054 -1.4686 -0.9396
  145POPC   H8Y19405   6.604   6.158   3.475 -2.2973 -2.2235  0.6835
  145POPC   C3919406   6.755   6.193   3.617 -0.5779 -0.2933 -0.0433
  145POPC   H9X19407   6.775   6.284   3.556 -0.8409 -0.0691  0.2044
  145POPC   H9Y19408   6.854   6.152   3.648 -0.2606  0.4354 -0.0590
  145POPC  C31019409   6.677   6.229   3.742 -0.4520 -0.0401 -0.0179
  145POPC  H10X19410   6.634   6.136   3.785 -2.8657  0.2623 -1.5951
  145POPC  H10Y19411   6.588   6.287   3.710  0.2157  0.2459 -1.4438
  145POPC  C31119412   6.769   6.315   3.835 -0.0655  0.1457  0.0470
  145POPC  H11X19413   6.835   6.370   3.765 -0.1725 -1.8561 -1.7386
  145POPC  H11Y19414   6.844   6.253   3.888 -0.0257  0.3798  0.2667
  145POPC  C31219415   6.685   6.395   3.930  0.8228  0.8190 -0.1715
  145POPC  H12X19416   6.626   6.328   3.996 -1.7617  1.6580 -1.4843
  145POPC  H12Y19417   6.607   6.452   3.875 -0.1200  0.0438  0.3299
  145POPC  C31319418   6.763   6.507   4.004  0.4419 -0.6388 -0.4559
  145POPC  H13X19419   6.697   6.554   4.080 -0.4222 -2.6902  0.1533
  145POPC  H13Y19420   6.792   6.593   3.940  0.6177  0.5086  1.1100
  145POPC  C31419421   6.892   6.465   4.075 -0.3091  0.1398  0.0625
  145POPC  H14X19422   6.922   6.547   4.142 -0.9230 -0.2593  0.8453
  145POPC  H14Y19423   6.978   6.448   4.006 -0.3191  3.2877 -0.8585
  145POPC  C31519424   6.873   6.340   4.156  0.0889 -0.2315 -0.2591
  145POPC  H15X19425   6.840   6.257   4.091  1.0764  1.3315 -2.8931
  145POPC  H15Y19426   6.788   6.343   4.228 -1.1448 -0.7226 -1.6313
  145POPC  C31619427   6.999   6.294   4.232  0.1516  0.0401  0.2869
  145POPC  H16X19428   6.974   6.240   4.326 -0.9323 -1.4911 -0.8146
  145POPC  H16Y19429   7.055   6.386   4.260  0.2426  0.1175 -0.1423
  145POPC  H16Z19430   7.055   6.225   4.165 -2.0257 -3.0103  1.3743
  146POPC     N19431   4.470   2.549   1.736  1.0263  0.2374  0.4570
  146POPC   C1219432   4.355   2.626   1.807 -0.0348  0.0870 -0.4608
  146POPC  H12A19433   4.283   2.670   1.740 -1.3162  2.3980  2.1851
  146POPC  H12B19434   4.400   2.717   1.845 -0.5841 -0.1384  0.7795
  146POPC   C1319435   4.535   2.640   1.645  0.0190 -0.6371  0.0628
  146POPC  H13A19436   4.582   2.722   1.697 -1.8557  0.1045  0.6897
  146POPC  H13B19437   4.600   2.590   1.575  1.3400  0.5024  0.4458
  146POPC  H13C19438   4.459   2.696   1.591  1.1322  0.0464 -0.8282
  146POPC   C1419439   4.572   2.516   1.839 -0.0264 -0.4770  0.0183
  146POPC  H14A19440   4.608   2.605   1.888 -0.5224  0.1766 -0.7839
  146POPC  H14B19441   4.528   2.455   1.917  1.5844 -0.4392  1.0174
  146POPC  H14C19442   4.665   2.475   1.800  0.2367 -0.5949  0.7553
  146POPC   C1519443   4.430   2.424   1.666  0.1931 -0.1030  0.3576
  146POPC  H15A19444   4.377   2.446   1.574 -2.0450 -0.9357  1.3615
  146POPC  H15B19445   4.372   2.350   1.718 -0.9298  0.4577 -0.0391
  146POPC  H15C19446   4.521   2.372   1.642  0.1852  0.5864 -1.3154
  146POPC   C1119447   4.273   2.562   1.924  0.1971  0.4881  0.0394
  146POPC  H11A19448   4.202   2.638   1.963 -2.4589 -1.0434 -1.5164
  146POPC  H11B19449   4.335   2.517   2.005 -0.5006  1.1824  0.9771
  146POPC     P19450   4.100   2.458   1.758  0.5136 -0.4061  0.1023
  146POPC   O1319451   4.108   2.334   1.687  0.1971 -0.1209  0.4568
  146POPC   O1419452   4.102   2.575   1.669  0.2492  0.8041  0.0440
  146POPC   O1219453   4.199   2.451   1.872 -1.1216 -0.3999 -0.0612
  146POPC   O1119454   3.962   2.467   1.837 -0.6033 -0.3622  0.1948
  146POPC    C119455   3.937   2.428   1.968 -0.0937 -0.3073  0.7206
  146POPC    HA19456   4.030   2.390   2.015 -0.1642 -0.3668  0.8124
  146POPC    HB19457   3.863   2.346   1.960 -0.9921  0.3281  2.1170
  146POPC    C219458   3.862   2.527   2.050 -0.5558  0.2733  0.5894
  146POPC    HS19459   3.769   2.548   1.993  0.8842  0.5076 -1.8186
  146POPC   O2119460   3.944   2.637   2.076  0.1242 -0.7050 -0.4491
  146POPC   C2119461   3.893   2.758   2.043 -0.9732  0.8084 -0.9055
  146POPC   O2219462   3.785   2.778   1.991  0.0475 -0.0490 -0.7253
  146POPC   C2219463   3.992   2.868   2.074 -0.5299 -0.1133 -0.0910
  146POPC   H2R19464   4.001   2.911   1.972 -0.0741  0.4100  0.1590
  146POPC   H2S19465   4.092   2.829   2.104 -0.3474 -1.1942 -2.0077
  146POPC    C319466   3.826   2.469   2.185 -0.4361  0.1878  0.8279
  146POPC    HX19467   3.917   2.437   2.239  0.3383  0.9931  0.0246
  146POPC    HY19468   3.762   2.378   2.185  2.7072 -2.1934 -0.2349
  146POPC   O3119469   3.764   2.573   2.260 -0.3841 -0.1136  0.0872
  146POPC   C3119470   3.628   2.588   2.245  0.3348 -0.6810 -0.2937
  146POPC   O3219471   3.560   2.515   2.174 -0.0635 -0.4220  0.4090
  146POPC   C3219472   3.573   2.698   2.333  0.1501  0.2756  0.3455
  146POPC   H2X19473   3.515   2.760   2.261 -0.3863 -3.0287 -2.2943
  146POPC   H2Y19474   3.649   2.754   2.392 -1.4417  0.1527  2.6746
  146POPC   C2319475   3.946   2.972   2.179 -0.2664  0.3450  0.2722
  146POPC   H3R19476   3.845   3.011   2.154 -0.3501  0.3610  0.6354
  146POPC   H3S19477   4.019   3.057   2.180 -1.2664  1.2387  1.8284
  146POPC   C2419478   3.941   2.906   2.319 -0.2821  0.1971  0.0597
  146POPC   H4R19479   4.041   2.865   2.342 -0.2970 -0.4578 -1.0197
  146POPC   H4S19480   3.865   2.825   2.310  0.8847 -0.8117 -1.0221
  146POPC   C2519481   3.886   3.004   2.430  0.4114 -0.1602  0.0378
  146POPC   H5R19482   3.794   3.053   2.391  1.1373  1.2981  0.1027
  146POPC   H5S19483   3.962   3.083   2.451  1.9625 -1.9665  1.6691
  146POPC   C2619484   3.855   2.933   2.557 -0.1312  1.5278  0.4725
  146POPC   H6R19485   3.955   2.904   2.596  1.0423  3.7267 -0.7034
  146POPC   H6S19486   3.794   2.844   2.531 -1.7229  1.7962  2.9884
  146POPC   C2719487   3.776   3.007   2.668  0.6018 -0.3761 -0.1205
  146POPC   H7R19488   3.672   3.016   2.630 -0.5258  2.4107  3.0939
  146POPC   H7S19489   3.832   3.102   2.683 -1.3481  0.7592  0.2220
  146POPC   C2819490   3.766   2.929   2.803  0.3249 -0.3904  0.5856
  146POPC   H8R19491   3.872   2.899   2.820  0.8456  0.2754 -1.2776
  146POPC   H8S19492   3.702   2.839   2.792  1.5380 -1.0203 -2.3570
  146POPC   C2919493   3.719   3.015   2.910 -0.0543 -0.4151 -0.3383
  146POPC   H9119494   3.677   3.109   2.872 -1.1148 -0.2788  1.0987
  146POPC  C21019495   3.671   2.975   3.032 -0.3333 -0.0814  0.1571
  146POPC  H10119496   3.625   3.051   3.097 -1.0921  1.8372 -2.3969
  146POPC  C21119497   3.679   2.827   3.074  0.5621 -1.0753 -0.3561
  146POPC  H11R19498   3.763   2.768   3.031 -0.9577 -1.8075 -2.4459
  146POPC  H11S19499   3.592   2.763   3.049 -0.6885  0.0814  0.8787
  146POPC  C21219500   3.686   2.836   3.230 -0.7359  0.0137  0.0158
  146POPC  H12R19501   3.600   2.894   3.268  0.0394  0.9027  0.4552
  146POPC  H12S19502   3.772   2.901   3.257  0.1712 -1.4577  0.8619
  146POPC  C21319503   3.676   2.703   3.297 -0.2848 -0.1012  0.5306
  146POPC  H13R19504   3.722   2.612   3.252 -2.7654 -2.2479  2.0157
  146POPC  H13S19505   3.568   2.674   3.289 -0.7464  1.4181  1.0135
  146POPC  C21419506   3.722   2.700   3.442 -0.1264 -0.3505 -0.6418
  146POPC  H14R19507   3.665   2.776   3.500  0.4588  0.4529 -1.1048
  146POPC  H14S19508   3.830   2.727   3.445 -0.4705  1.0246  1.6961
  146POPC  C21519509   3.708   2.564   3.507  0.1973  0.3882 -0.3457
  146POPC  H15R19510   3.769   2.495   3.445  1.7342  0.9416  0.4941
  146POPC  H15S19511   3.604   2.526   3.509  0.6085 -0.7433  0.1013
  146POPC  C21619512   3.760   2.564   3.654 -0.0642 -0.3593 -0.3733
  146POPC  H16R19513   3.697   2.634   3.713  1.5064 -0.4354  1.5021
  146POPC  H16S19514   3.858   2.616   3.648  0.9051 -1.8258  1.5861
  146POPC  C21719515   3.776   2.418   3.709  0.5385  0.1872  0.4292
  146POPC  H17R19516   3.831   2.435   3.804  3.4675 -0.8621 -0.9340
  146POPC  H17S19517   3.842   2.351   3.649  0.4073  1.4382 -1.1968
  146POPC  C21819518   3.649   2.346   3.748  0.0826 -0.0757  0.4266
  146POPC  H18R19519   3.571   2.355   3.670  0.4782  0.9500  0.1388
  146POPC  H18S19520   3.601   2.385   3.841 -0.0223  0.5864  0.0971
  146POPC  H18T19521   3.665   2.236   3.756 -1.5438 -0.4982 -1.4558
  146POPC   C3319522   3.476   2.641   2.434 -0.7514 -0.2856 -0.5199
  146POPC   H3X19523   3.406   2.565   2.392 -1.2719 -0.3946  0.5191
  146POPC   H3Y19524   3.408   2.720   2.470  0.2376  0.7821 -0.9263
  146POPC   C3419525   3.557   2.576   2.551 -0.0573  0.3341  0.0343
  146POPC   H4X19526   3.627   2.653   2.593  0.7816  0.5667 -1.7225
  146POPC   H4Y19527   3.633   2.517   2.496 -2.1442  1.4505 -4.5213
  146POPC   C3519528   3.472   2.499   2.663 -0.5234  0.2731 -0.2364
  146POPC   H5X19529   3.541   2.431   2.718 -1.2351 -0.5696 -0.3490
  146POPC   H5Y19530   3.383   2.453   2.614 -1.1295  1.0904  0.0776
  146POPC   C3619531   3.420   2.599   2.770 -0.4925 -0.9209  0.1032
  146POPC   H6X19532   3.331   2.645   2.723 -1.0689 -0.6069  1.4588
  146POPC   H6Y19533   3.489   2.682   2.793 -2.8615  1.6769 -1.5196
  146POPC   C3719534   3.393   2.538   2.909 -0.0691 -0.0034  0.1155
  146POPC   H7X19535   3.490   2.525   2.960  0.0867 -0.4357 -0.2760
  146POPC   H7Y19536   3.346   2.439   2.888  0.4946 -0.2761  0.1081
  146POPC   C3819537   3.307   2.626   2.998  0.7218 -0.0774 -0.2895
  146POPC   H8X19538   3.217   2.635   2.932  1.0924  0.4304 -0.7373
  146POPC   H8Y19539   3.345   2.728   3.021 -0.9234  0.1297  1.8094
  146POPC   C3919540   3.285   2.562   3.141  0.0452 -0.2189  0.2814
  146POPC   H9X19541   3.388   2.555   3.183  0.3719  0.2915 -0.4085
  146POPC   H9Y19542   3.245   2.460   3.125  3.2905 -1.7084  0.8093
  146POPC  C31019543   3.195   2.646   3.232  0.0019 -0.4397  0.4009
  146POPC  H10X19544   3.096   2.668   3.186 -0.0646 -1.0447  0.2467
  146POPC  H10Y19545   3.237   2.743   3.265 -0.9444 -0.9136  3.2438
  146POPC  C31119546   3.162   2.564   3.352  0.6829 -0.4717  0.7735
  146POPC  H11X19547   3.255   2.517   3.391 -0.0929 -2.9741 -0.2167
  146POPC  H11Y19548   3.096   2.480   3.323 -0.7240  1.2376 -1.3265
  146POPC  C31219549   3.091   2.632   3.470  0.4717 -0.4802 -0.0177
  146POPC  H12X19550   2.992   2.665   3.431 -0.3586 -2.2113  0.5086
  146POPC  H12Y19551   3.151   2.718   3.506  1.1228 -0.8045 -0.3088
  146POPC  C31319552   3.057   2.532   3.583 -0.8171 -0.0913 -0.4452
  146POPC  H13X19553   3.031   2.439   3.529  0.8365 -0.2019 -1.1081
  146POPC  H13Y19554   2.971   2.561   3.647 -0.3919  0.4533 -0.1051
  146POPC  C31419555   3.180   2.509   3.688  0.2443 -0.3933  0.7087
  146POPC  H14X19556   3.209   2.598   3.748  2.0792  0.1071 -0.8278
  146POPC  H14Y19557   3.273   2.473   3.639 -0.9787 -0.7095 -1.5158
  146POPC  C31519558   3.160   2.397   3.791 -0.2154 -0.1693  0.8276
  146POPC  H15X19559   3.162   2.311   3.721  0.0420  2.3173 -2.4872
  146POPC  H15Y19560   3.062   2.408   3.842  0.8289  1.4622  2.6314
  146POPC  C31619561   3.269   2.392   3.896 -0.3680 -0.5493  0.3869
  146POPC  H16X19562   3.277   2.482   3.960  1.7180  1.0217 -1.9237
  146POPC  H16Y19563   3.367   2.386   3.845 -0.8602 -2.4020 -0.4221
  146POPC  H16Z19564   3.262   2.297   3.955 -1.0363 -1.1125 -0.5717
  147POPC     N19565   1.885   2.507   1.495  0.2016 -0.6605  0.4990
  147POPC   C1219566   1.964   2.639   1.467 -0.3135 -0.1017  0.1662
  147POPC  H12A19567   1.900   2.722   1.440  1.8044  2.2228  1.8848
  147POPC  H12B19568   2.020   2.631   1.374  2.5107  0.5647  1.6924
  147POPC   C1319569   1.788   2.534   1.603  0.3267  0.1874  0.4258
  147POPC  H13A19570   1.840   2.566   1.692 -1.7714  0.0228  1.7638
  147POPC  H13B19571   1.717   2.608   1.572 -1.6166 -1.7091  0.1408
  147POPC  H13C19572   1.732   2.450   1.640  1.7791 -0.0744  2.1768
  147POPC   C1419573   1.803   2.473   1.376 -0.0018  0.1787  0.1848
  147POPC  H14A19574   1.824   2.377   1.331 -1.6764 -0.2522  0.2843
  147POPC  H14B19575   1.698   2.465   1.399  0.3962 -0.6557  1.8978
  147POPC  H14C19576   1.796   2.551   1.302 -2.2603 -0.1928 -0.0417
  147POPC   C1519577   1.980   2.402   1.534 -0.3291  0.7639  0.0235
  147POPC  H15A19578   2.035   2.430   1.622 -1.7172 -2.2351  1.9936
  147POPC  H15B19579   2.044   2.377   1.451 -0.7514 -4.3434  0.8964
  147POPC  H15C19580   1.923   2.314   1.558 -1.7019  1.3742 -0.8303
  147POPC   C1119581   2.064   2.689   1.580 -0.6364  0.5354 -0.1944
  147POPC  H11A19582   2.109   2.786   1.550  0.2922  0.0996 -0.2502
  147POPC  H11B19583   2.146   2.614   1.576 -1.7950 -0.7496 -0.7438
  147POPC     P19584   2.083   2.760   1.823 -0.3085 -0.2471 -0.3885
  147POPC   O1319585   2.119   2.906   1.786  0.4743  0.1865  0.0316
  147POPC   O1419586   2.196   2.674   1.866  0.2519  0.3153 -0.6323
  147POPC   O1219587   1.999   2.694   1.709  0.3526  0.1169 -0.5408
  147POPC   O1119588   1.992   2.775   1.947  0.9564 -0.7819 -0.3252
  147POPC    C119589   1.856   2.731   1.952 -0.4781 -0.0542  0.5792
  147POPC    HA19590   1.835   2.657   1.871  4.8553 -1.6797  0.3172
  147POPC    HB19591   1.793   2.823   1.949  2.6050  2.2135 -0.4248
  147POPC    C219592   1.838   2.638   2.074  0.2334  0.4787 -0.1779
  147POPC    HS19593   1.731   2.615   2.094  0.5055  0.2888  1.1823
  147POPC   O2119594   1.886   2.697   2.189  0.0876 -0.0607 -0.0739
  147POPC   C2119595   1.803   2.788   2.244  0.0930 -0.1880  0.5262
  147POPC   O2219596   1.689   2.818   2.201 -0.2055 -0.1043 -0.7424
  147POPC   C2219597   1.871   2.822   2.379 -0.0537  0.3331  0.0804
  147POPC   H2R19598   1.937   2.908   2.359  1.2748 -0.7167 -0.1930
  147POPC   H2S19599   1.931   2.732   2.406  0.7198  0.5914 -0.7350
  147POPC    C319600   1.911   2.514   2.047  0.3302  0.0908  0.4801
  147POPC    HX19601   2.020   2.532   2.042  0.0925  1.4030 -3.6547
  147POPC    HY19602   1.898   2.473   1.944  0.0189  1.8851 -0.2264
  147POPC   O3119603   1.876   2.406   2.147 -0.6902  0.7663 -0.0426
  147POPC   C3119604   1.973   2.311   2.164  0.0090 -0.8014  0.1618
  147POPC   O3219605   2.063   2.292   2.086 -0.2468  0.3625  0.2657
  147POPC   C3219606   1.955   2.237   2.294 -0.1323  0.2611 -0.0481
  147POPC   H2X19607   1.854   2.191   2.281  0.0618 -0.1888  0.0022
  147POPC   H2Y19608   1.961   2.305   2.381  0.6235 -0.6636  0.6444
  147POPC   C2319609   1.770   2.858   2.495 -0.0365 -0.2203  0.3138
  147POPC   H3R19610   1.701   2.935   2.456 -0.7467 -1.9378 -2.0020
  147POPC   H3S19611   1.826   2.905   2.579  0.1146  1.3217 -0.6257
  147POPC   C2419612   1.694   2.733   2.534 -0.2978 -0.0348 -0.0120
  147POPC   H4R19613   1.757   2.650   2.573 -0.3415 -0.3258 -0.5391
  147POPC   H4S19614   1.639   2.673   2.459 -2.7165 -0.5050  2.0334
  147POPC   C2519615   1.574   2.773   2.619 -0.1451 -0.3236 -0.6446
  147POPC   H5R19616   1.500   2.829   2.559 -0.9731  0.2657  0.8700
  147POPC   H5S19617   1.608   2.834   2.706 -0.4944 -0.9259 -0.0770
  147POPC   C2619618   1.502   2.647   2.672  0.0907 -0.5804  0.1916
  147POPC   H6R19619   1.569   2.562   2.696  0.1948 -0.5527  0.0009
  147POPC   H6S19620   1.447   2.615   2.581 -0.7235  0.1464  0.4177
  147POPC   C2719621   1.394   2.663   2.780 -0.4522  0.1389 -0.7135
  147POPC   H7R19622   1.315   2.735   2.752 -0.7215  0.1456  0.0358
  147POPC   H7S19623   1.443   2.705   2.871 -2.2755 -1.7855  1.2682
  147POPC   C2819624   1.338   2.527   2.819 -0.7209  0.0772 -0.0021
  147POPC   H8R19625   1.280   2.541   2.912 -0.7606  0.4066 -0.0752
  147POPC   H8S19626   1.418   2.453   2.840 -0.6289 -0.0846 -0.8583
  147POPC   C2919627   1.262   2.470   2.700  0.4500 -1.2527  0.5180
  147POPC   H9119628   1.322   2.412   2.629 -0.4387 -1.3520 -0.1780
  147POPC  C21019629   1.128   2.491   2.678  0.3668 -0.3328  0.1336
  147POPC  H10119630   1.073   2.434   2.601  1.6224 -0.5499 -0.6368
  147POPC  C21119631   1.040   2.564   2.773  0.8607  0.2281  0.2511
  147POPC  H11R19632   0.961   2.613   2.712 -0.7225 -1.5697  0.7484
  147POPC  H11S19633   1.095   2.641   2.831  0.6281  0.0472  0.7116
  147POPC  C21219634   0.966   2.465   2.870 -0.4001 -0.0326 -0.6024
  147POPC  H12R19635   0.921   2.526   2.951  0.6788 -0.2362  0.1714
  147POPC  H12S19636   1.044   2.404   2.921  0.0809  2.3089  1.6736
  147POPC  C21319637   0.852   2.375   2.812 -0.1920 -0.2939  0.0294
  147POPC  H13R19638   0.838   2.285   2.877  1.2863 -1.2791 -0.9494
  147POPC  H13S19639   0.884   2.340   2.712  3.8697  2.9281 -0.0709
  147POPC  C21419640   0.723   2.454   2.778 -0.6383  0.6674 -0.9005
  147POPC  H14R19641   0.753   2.548   2.727 -0.3472  0.4443 -1.1416
  147POPC  H14S19642   0.670   2.487   2.871  1.2286  0.5160  0.2699
  147POPC  C21519643   0.626   2.368   2.695 -0.2866 -0.3372  0.1126
  147POPC  H15R19644   0.679   2.291   2.634 -2.1938 -0.5807 -1.3317
  147POPC  H15S19645   0.587   2.440   2.619 -0.8880  1.0657  1.6933
  147POPC  C21619646   0.519   2.300   2.779  0.0743 -0.4687  0.1832
  147POPC  H16R19647   0.434   2.371   2.793 -2.9345 -3.7715 -0.0578
  147POPC  H16S19648   0.562   2.277   2.879  3.4736  1.5292 -0.6456
  147POPC  C21719649   0.457   2.172   2.721 -0.6190  0.1594  0.8655
  147POPC  H17R19650   0.390   2.124   2.796 -0.2257 -2.8103 -0.5350
  147POPC  H17S19651   0.539   2.104   2.688 -0.6547  0.7264 -0.4807
  147POPC  C21819652   0.370   2.199   2.596 -0.7364 -0.2981  0.4348
  147POPC  H18R19653   0.339   2.099   2.560  2.8937 -1.2273 -0.5865
  147POPC  H18S19654   0.437   2.242   2.518  0.7035 -1.2467  1.0936
  147POPC  H18T19655   0.284   2.267   2.611  0.9588  1.9499  0.5286
  147POPC   C3319656   2.061   2.127   2.327 -0.4827 -0.4967 -0.2564
  147POPC   H3X19657   2.163   2.168   2.342 -0.7015 -0.1173  0.2594
  147POPC   H3Y19658   2.056   2.060   2.239 -1.0452 -0.5184 -0.2144
  147POPC   C3419659   2.022   2.059   2.456  0.0788  0.0925  0.0406
  147POPC   H4X19660   1.919   2.017   2.446 -0.6143  1.9925 -1.3862
  147POPC   H4Y19661   2.020   2.132   2.540  1.3260  0.5262 -0.2958
  147POPC   C3519662   2.124   1.949   2.485 -0.3468  0.3419  0.4638
  147POPC   H5X19663   2.228   1.987   2.494 -0.9223  2.0743  0.1350
  147POPC   H5Y19664   2.123   1.864   2.413  1.7486  0.2844  0.4572
  147POPC   C3619665   2.092   1.889   2.626  0.1378 -0.2904 -0.1495
  147POPC   H6X19666   1.993   1.841   2.624 -1.4998  2.8400 -0.8229
  147POPC   H6Y19667   2.085   1.970   2.702  0.3785 -0.5586  0.1625
  147POPC   C3719668   2.199   1.796   2.700  0.0033 -0.3508  1.0160
  147POPC   H7X19669   2.298   1.844   2.715 -0.3842  0.9811 -0.3736
  147POPC   H7Y19670   2.211   1.717   2.623  0.2597  1.3638 -0.8037
  147POPC   C3819671   2.146   1.749   2.833  0.7654 -0.1237  0.2150
  147POPC   H8X19672   2.061   1.681   2.812  0.6588  0.4367 -1.3701
  147POPC   H8Y19673   2.108   1.838   2.888  2.4772  1.4857 -1.0379
  147POPC   C3919674   2.236   1.671   2.930 -0.3084  0.4480 -0.9855
  147POPC   H9X19675   2.331   1.727   2.938 -0.2299  0.1874  0.0480
  147POPC   H9Y19676   2.250   1.568   2.892  2.4490  0.8814 -1.3612
  147POPC  C31019677   2.172   1.672   3.071 -0.4228  0.6803  0.6589
  147POPC  H10X19678   2.079   1.612   3.063  0.9963 -1.4092 -1.8345
  147POPC  H10Y19679   2.138   1.772   3.105 -0.8689  1.1511 -1.0706
  147POPC  C31119680   2.266   1.624   3.177  0.3436  0.3078  0.7698
  147POPC  H11X19681   2.341   1.706   3.185 -1.6388  2.1714  1.1503
  147POPC  H11Y19682   2.314   1.528   3.151  0.3982 -0.1107  2.3058
  147POPC  C31219683   2.191   1.615   3.307  0.3434  0.5234  0.8236
  147POPC  H12X19684   2.105   1.552   3.276  0.6796  0.5982 -0.3071
  147POPC  H12Y19685   2.143   1.708   3.343 -0.2677  0.7343 -0.4797
  147POPC  C31319686   2.252   1.537   3.426  0.4085 -0.4990  0.6430
  147POPC  H13X19687   2.339   1.589   3.470  0.0721  0.5133  0.1482
  147POPC  H13Y19688   2.292   1.443   3.382  0.2270 -0.8407  1.1912
  147POPC  C31419689   2.140   1.518   3.527 -0.1900 -0.2604 -0.5197
  147POPC  H14X19690   2.052   1.480   3.471 -0.5684  1.7614 -1.3989
  147POPC  H14Y19691   2.109   1.616   3.567  0.4990  0.3178 -1.3732
  147POPC  C31519692   2.172   1.410   3.635 -0.0838 -0.2163 -0.3476
  147POPC  H15X19693   2.215   1.321   3.585  1.5691 -0.7518  1.9120
  147POPC  H15Y19694   2.077   1.381   3.686 -0.1192  0.0973 -0.2320
  147POPC  C31619695   2.269   1.463   3.742  0.2515 -1.0720 -0.1449
  147POPC  H16X19696   2.288   1.384   3.818  0.4631  0.9901  2.0706
  147POPC  H16Y19697   2.223   1.548   3.797  2.3021 -1.1765  1.8699
  147POPC  H16Z19698   2.356   1.515   3.696 -0.5160  0.3914 -0.0181
  148POPC     N19699   7.495   2.124   1.894  0.2552 -0.1919  0.2273
  148POPC   C1219700   7.626   2.054   1.867  0.3231 -0.1739 -0.2546
  148POPC  H12A19701   7.709   2.123   1.855  0.1794  0.0733  0.1571
  148POPC  H12B19702   7.610   2.001   1.775  0.6953  3.2674 -2.4986
  148POPC   C1319703   7.467   2.234   1.792  0.1963  0.0652  0.2857
  148POPC  H13A19704   7.377   2.290   1.811  0.6849  0.7034  0.7785
  148POPC  H13B19705   7.533   2.317   1.815  0.8455 -1.0645  2.8345
  148POPC  H13C19706   7.478   2.203   1.689  1.2041  1.9764 -0.2256
  148POPC   C1419707   7.376   2.036   1.886  0.7457  0.5136 -0.7311
  148POPC  H14A19708   7.381   1.955   1.958  0.1242  0.6801 -0.4895
  148POPC  H14B19709   7.285   2.092   1.900  0.4895  0.0125 -0.3381
  148POPC  H14C19710   7.375   1.989   1.789  2.0975 -1.7938  0.2767
  148POPC   C1519711   7.507   2.189   2.028  0.3671  0.4103  0.0538
  148POPC  H15A19712   7.410   2.210   2.072  0.1754  0.5795 -0.4460
  148POPC  H15B19713   7.551   2.287   2.026 -3.5594  2.3650  0.2046
  148POPC  H15C19714   7.559   2.118   2.091 -1.2149 -1.3579 -0.5233
  148POPC   C1119715   7.661   1.945   1.974  0.6927 -0.6935  0.1987
  148POPC  H11A19716   7.741   1.879   1.936  0.2224 -0.7739 -0.6614
  148POPC  H11B19717   7.566   1.891   1.997  0.9705 -0.1175  3.0921
  148POPC     P19718   7.845   2.094   2.090 -0.1701 -0.1440  0.6784
  148POPC   O1319719   7.795   2.234   2.079 -0.5717  0.0204  0.0384
  148POPC   O1419720   7.928   2.029   1.989  0.4915 -0.6893 -0.0717
  148POPC   O1219721   7.716   2.002   2.097  0.2267  0.6295 -0.3371
  148POPC   O1119722   7.919   2.066   2.224  0.0565  0.2157  0.5838
  148POPC    C119723   7.917   1.944   2.293 -0.1001  0.2834 -0.3003
  148POPC    HA19724   8.021   1.905   2.290  0.5854  2.0359 -0.6862
  148POPC    HB19725   7.858   1.867   2.239  1.7365 -0.5473 -1.1839
  148POPC    C219726   7.860   1.954   2.432  0.1905  0.5657 -0.4920
  148POPC    HS19727   7.764   2.010   2.425  0.4141  0.8335 -1.5281
  148POPC   O2119728   7.957   1.991   2.522  0.2784  0.4869  0.0020
  148POPC   C2119729   7.936   2.101   2.590  0.2886  0.5578 -0.4390
  148POPC   O2219730   7.836   2.171   2.588  1.1761 -0.0943 -0.1429
  148POPC   C2219731   8.052   2.111   2.686  0.1742 -0.4151  0.1772
  148POPC   H2R19732   8.145   2.113   2.626 -1.2140 -1.7025 -2.1640
  148POPC   H2S19733   8.054   2.023   2.754  1.3784  0.1503  0.9101
  148POPC    C319734   7.813   1.815   2.482 -0.6481 -0.2514 -0.2679
  148POPC    HX19735   7.900   1.746   2.479 -1.4419 -1.5063  2.4759
  148POPC    HY19736   7.732   1.764   2.426 -0.2152 -3.1815  1.5118
  148POPC   O3119737   7.773   1.812   2.627  0.2551 -0.1433  0.1048
  148POPC   C3119738   7.651   1.870   2.661  0.3460  0.5154  0.0660
  148POPC   O3219739   7.576   1.912   2.575  0.0191  0.2769 -0.2590
  148POPC   C3219740   7.626   1.891   2.812  0.0705 -0.3952 -0.5386
  148POPC   H2X19741   7.726   1.884   2.860  0.4972  2.3625 -0.8325
  148POPC   H2Y19742   7.566   1.806   2.851  0.0744 -0.1862 -0.0687
  148POPC   C2319743   8.046   2.241   2.786 -0.3306 -0.1370 -0.3167
  148POPC   H3R19744   7.945   2.267   2.826  0.6999  1.7912  1.1876
  148POPC   H3S19745   8.075   2.326   2.721 -2.4459 -0.1983 -1.4504
  148POPC   C2419746   8.137   2.216   2.919 -0.3786  0.0189 -0.6255
  148POPC   H4R19747   8.236   2.173   2.895  0.5027 -0.4225  3.1457
  148POPC   H4S19748   8.078   2.140   2.975 -1.7837  2.3595  1.3323
  148POPC   C2519749   8.166   2.330   3.017 -0.1136  0.7593  0.2857
  148POPC   H5R19750   8.070   2.376   3.047 -0.0882  1.3559 -0.5095
  148POPC   H5S19751   8.220   2.415   2.970 -1.5028  0.7316 -1.4855
  148POPC   C2619752   8.227   2.284   3.146 -0.3055  0.0767  0.7544
  148POPC   H6R19753   8.306   2.208   3.129 -1.1295 -0.9410  1.2988
  148POPC   H6S19754   8.157   2.226   3.210  2.7910 -1.4517  2.9827
  148POPC   C2719755   8.282   2.400   3.229  0.3302 -0.2566 -0.3290
  148POPC   H7R19756   8.219   2.489   3.252  2.1342  0.7891  0.8282
  148POPC   H7S19757   8.367   2.446   3.174  1.6240  0.6343  2.2507
  148POPC   C2819758   8.327   2.348   3.364 -0.4309 -0.0759 -0.1374
  148POPC   H8R19759   8.381   2.254   3.339 -0.2649 -0.9766  3.1524
  148POPC   H8S19760   8.236   2.318   3.419  0.1859  0.7321  1.3616
  148POPC   C2919761   8.399   2.444   3.459  0.3043  0.0124  0.9607
  148POPC   H9119762   8.360   2.545   3.476 -0.6717 -0.0278 -0.7856
  148POPC  C21019763   8.494   2.412   3.544 -0.3273 -0.7705  0.4585
  148POPC  H10119764   8.532   2.489   3.612 -1.7839  1.3156 -1.0003
  148POPC  C21119765   8.543   2.273   3.571 -0.2639 -0.2679  0.5868
  148POPC  H11R19766   8.548   2.201   3.486 -1.8356 -0.0429  0.2771
  148POPC  H11S19767   8.465   2.228   3.636 -1.3508  0.0702 -0.4490
  148POPC  C21219768   8.672   2.265   3.654 -0.0291 -0.0895  0.3085
  148POPC  H12R19769   8.686   2.343   3.732  0.0679 -0.6157  0.8143
  148POPC  H12S19770   8.759   2.285   3.587 -1.9542  0.6561 -2.1192
  148POPC  C21319771   8.700   2.132   3.721 -0.0726  0.3913 -0.2975
  148POPC  H13R19772   8.720   2.049   3.649  1.4212 -1.7432  2.3783
  148POPC  H13S19773   8.610   2.097   3.775 -0.4608  0.2732 -1.0026
  148POPC  C21419774   8.812   2.140   3.816  0.6762 -0.1960  0.1556
  148POPC  H14R19775   8.782   2.215   3.892 -0.0869 -1.7611  1.4726
  148POPC  H14S19776   8.906   2.175   3.768  0.6716 -0.3107  0.0621
  148POPC  C21519777   8.838   2.009   3.895 -0.6370  0.3603  0.0476
  148POPC  H15R19778   8.863   1.926   3.825  1.4437 -0.1655  1.3201
  148POPC  H15S19779   8.745   1.995   3.954  0.6951 -1.2604  1.8737
  148POPC  C21619780   8.956   2.007   3.991 -0.5869 -0.0775 -0.0479
  148POPC  H16R19781   8.958   2.091   4.064  4.5933  0.0234  0.0171
  148POPC  H16S19782   9.049   2.030   3.936 -1.9349  3.2667 -1.2086
  148POPC  C21719783   8.975   1.874   4.081  0.1919 -0.0555 -0.3976
  148POPC  H17R19784   9.069   1.862   4.138 -0.6891 -0.5428  1.0076
  148POPC  H17S19785   8.962   1.787   4.014 -0.4859  0.0935 -0.4671
  148POPC  C21819786   8.856   1.857   4.179  0.1009  0.3966 -0.2556
  148POPC  H18R19787   8.855   1.758   4.229 -0.4275  0.7926  0.5327
  148POPC  H18S19788   8.759   1.861   4.125  0.0158  0.0181 -0.1310
  148POPC  H18T19789   8.855   1.939   4.254 -1.0130 -0.3963  0.6149
  148POPC   C3319790   7.552   2.021   2.855  0.0773 -0.2315  0.0691
  148POPC   H3X19791   7.450   1.997   2.820  0.8153 -0.1692 -2.3048
  148POPC   H3Y19792   7.596   2.106   2.797  1.0355 -1.0085 -0.3693
  148POPC   C3419793   7.574   2.057   3.008  0.7558 -0.6790 -0.0045
  148POPC   H4X19794   7.534   1.970   3.064 -1.1880  1.3123  1.9390
  148POPC   H4Y19795   7.516   2.147   3.040 -0.1462 -1.5115  0.7599
  148POPC   C3519796   7.721   2.079   3.043  0.0233  0.2839 -0.5086
  148POPC   H5X19797   7.746   2.184   3.016 -0.5749  0.6620  0.3441
  148POPC   H5Y19798   7.788   2.016   2.981  0.0606 -0.5687  0.3808
  148POPC   C3619799   7.761   2.059   3.191 -0.3903 -0.1952  0.4182
  148POPC   H6X19800   7.713   1.964   3.221 -1.6273 -0.5340 -2.2798
  148POPC   H6Y19801   7.722   2.133   3.264  1.4451 -0.7590  2.0326
  148POPC   C3719802   7.911   2.057   3.198  0.3834  0.8398 -0.2152
  148POPC   H7X19803   7.955   2.159   3.205  1.1177  0.5179 -0.1225
  148POPC   H7Y19804   7.949   2.016   3.102 -1.2293  1.9986 -1.4058
  148POPC   C3819805   7.968   1.965   3.311 -0.0404  0.3716  0.0356
  148POPC   H8X19806   7.949   1.859   3.285  2.4818  0.0020 -0.5480
  148POPC   H8Y19807   7.902   1.982   3.399 -1.3256 -0.0645 -0.8127
  148POPC   C3919808   8.118   1.990   3.326  0.0674 -0.1603  0.4490
  148POPC   H9X19809   8.140   2.092   3.366  0.4392 -0.8696  2.1480
  148POPC   H9Y19810   8.180   1.976   3.235  1.6680 -1.7641  1.7216
  148POPC  C31019811   8.176   1.883   3.417 -0.4885  0.4071  0.4005
  148POPC  H10X19812   8.180   1.796   3.347 -0.7313  0.6864  0.0361
  148POPC  H10Y19813   8.097   1.851   3.487 -1.6425  0.1397 -0.9724
  148POPC  C31119814   8.316   1.909   3.480 -0.1943 -0.3441  0.4526
  148POPC  H11X19815   8.326   2.004   3.537 -0.5532  0.7887 -1.3013
  148POPC  H11Y19816   8.385   1.919   3.394 -1.6801  0.7924 -0.6440
  148POPC  C31219817   8.376   1.789   3.557 -0.4305 -0.2410 -0.6536
  148POPC  H12X19818   8.378   1.695   3.498 -1.7244 -0.3481 -0.5610
  148POPC  H12Y19819   8.324   1.771   3.653  0.0502  2.6355  0.2665
  148POPC  C31319820   8.525   1.802   3.590 -0.5324 -1.0998 -0.3446
  148POPC  H13X19821   8.543   1.905   3.628 -0.1420 -1.1463 -0.4021
  148POPC  H13Y19822   8.569   1.811   3.488  1.8346  1.9088  0.8034
  148POPC  C31419823   8.595   1.689   3.661 -0.0289 -0.1991 -0.6601
  148POPC  H14X19824   8.705   1.700   3.667  0.0912 -0.4148 -2.1207
  148POPC  H14Y19825   8.563   1.589   3.626  1.3422 -1.0294  0.3682
  148POPC  C31519826   8.559   1.682   3.815  0.0567  0.5518  0.7436
  148POPC  H15X19827   8.449   1.668   3.812  0.3185 -2.1463  1.1528
  148POPC  H15Y19828   8.584   1.775   3.870 -1.1526  0.1493  2.0394
  148POPC  C31619829   8.618   1.559   3.894  0.2807  0.2237 -0.5447
  148POPC  H16X19830   8.565   1.549   3.991 -1.1565  0.1218 -1.3098
  148POPC  H16Y19831   8.727   1.573   3.913  0.0535  0.5856  0.5715
  148POPC  H16Z19832   8.608   1.465   3.835  0.7121  0.6302 -1.2770
  149POPC     N19833   2.957   6.956   1.460 -0.0859 -0.0991  0.0488
  149POPC   C1219834   3.053   7.082   1.466  0.1366 -0.1817 -0.3517
  149POPC  H12A19835   2.989   7.167   1.442 -0.6913 -0.8500 -0.5688
  149POPC  H12B19836   3.131   7.088   1.391  0.0904 -2.5667 -0.6494
  149POPC   C1319837   3.040   6.836   1.485  0.4257  0.5862 -0.1915
  149POPC  H13A19838   3.088   6.812   1.391  1.3029 -0.5619  0.5328
  149POPC  H13B19839   3.117   6.857   1.558  0.0060  3.1641 -0.3918
  149POPC  H13C19840   2.984   6.751   1.520  2.7323 -0.3643  1.4654
  149POPC   C1419841   2.857   6.963   1.567  0.0036 -0.2106  0.0136
  149POPC  H14A19842   2.784   7.037   1.536  1.0452  1.3880  1.1714
  149POPC  H14B19843   2.819   6.864   1.588  0.1142 -0.4334 -0.8096
  149POPC  H14C19844   2.911   7.004   1.651  0.6958 -0.1539 -0.4513
  149POPC   C1519845   2.884   6.948   1.332  0.1002 -0.0851 -0.3852
  149POPC  H15A19846   2.953   6.920   1.254  1.1210  1.7517 -0.1995
  149POPC  H15B19847   2.831   7.040   1.312  0.0817 -0.0449 -0.1567
  149POPC  H15C19848   2.812   6.868   1.337 -0.3393  0.2292 -1.4590
  149POPC   C1119849   3.124   7.117   1.603  0.3293 -0.0943 -0.1176
  149POPC  H11A19850   3.050   7.111   1.686  0.5376 -1.3160  0.0014
  149POPC  H11B19851   3.163   7.221   1.611 -0.1500 -0.0389  2.2319
  149POPC     P19852   3.373   7.006   1.610  0.1062 -0.4161  0.4817
  149POPC   O1319853   3.405   7.038   1.469 -0.0010  0.1465 -0.8938
  149POPC   O1419854   3.423   6.878   1.657 -0.2722  0.4866 -0.3704
  149POPC   O1219855   3.221   7.015   1.632 -0.0660 -0.3078 -0.0153
  149POPC   O1119856   3.436   7.121   1.699 -0.3183 -0.0575 -1.1419
  149POPC    C119857   3.464   7.097   1.842 -0.0854 -0.3967  0.7555
  149POPC    HA19858   3.557   7.150   1.870  0.0843 -1.4687  2.3751
  149POPC    HB19859   3.493   6.991   1.859 -0.8925 -0.9472 -1.1243
  149POPC    C219860   3.349   7.135   1.928  0.0539  0.2403 -0.6918
  149POPC    HS19861   3.271   7.064   1.896  0.4330 -0.6523  0.2975
  149POPC   O2119862   3.302   7.271   1.908 -0.1723  0.2867 -0.3796
  149POPC   C2119863   3.173   7.300   1.926 -0.1222  0.4346  0.3769
  149POPC   O2219864   3.086   7.217   1.943  0.3587  0.1747  0.9104
  149POPC   C2219865   3.155   7.449   1.914 -0.5574 -0.0092  0.0393
  149POPC   H2R19866   3.080   7.461   1.833  0.4093 -1.3267 -1.0871
  149POPC   H2S19867   3.251   7.500   1.892 -0.4295 -0.4422 -0.4071
  149POPC    C319868   3.383   7.120   2.078  0.4630  0.4593 -0.4450
  149POPC    HX19869   3.464   7.185   2.115  0.7297  0.1536 -0.4838
  149POPC    HY19870   3.420   7.015   2.086 -2.2877 -0.6801 -1.4549
  149POPC   O3119871   3.265   7.144   2.153 -1.0588 -0.2555 -0.0237
  149POPC   C3119872   3.188   7.042   2.196 -0.1294 -0.4070 -0.5325
  149POPC   O3219873   3.217   6.920   2.194  0.5574 -0.1069  0.5477
  149POPC   C3219874   3.057   7.097   2.249  1.0561 -0.1159  0.4356
  149POPC   H2X19875   2.983   7.120   2.170  1.0173  0.3980  0.6190
  149POPC   H2Y19876   3.082   7.199   2.283  2.4847 -0.2034 -0.2376
  149POPC   C2319877   3.084   7.517   2.044  0.5718  0.4124  0.3743
  149POPC   H3R19878   2.996   7.457   2.072  0.1022  0.6195 -0.6067
  149POPC   H3S19879   3.052   7.617   2.006 -1.8640 -0.5869 -0.3522
  149POPC   C2419880   3.171   7.530   2.166  0.6352  0.5473 -0.2798
  149POPC   H4R19881   3.272   7.574   2.146  0.6133  0.4517 -0.5910
  149POPC   H4S19882   3.192   7.426   2.200 -0.7952 -0.0656 -1.1945
  149POPC   C2519883   3.108   7.617   2.276 -0.6768 -0.0691 -0.4966
  149POPC   H5R19884   3.191   7.618   2.349  0.3299  0.6958 -1.5998
  149POPC   H5S19885   3.021   7.562   2.317 -0.4719  0.9089  1.3313
  149POPC   C2619886   3.073   7.755   2.236  0.2984  0.1131  0.0180
  149POPC   H6R19887   2.998   7.749   2.153 -1.3335 -0.3667  1.4565
  149POPC   H6S19888   3.163   7.803   2.194  1.3157 -1.6335  0.0847
  149POPC   C2719889   3.012   7.832   2.352 -0.4028 -0.3466 -0.3392
  149POPC   H7R19890   3.089   7.847   2.431 -1.9279  1.0298  0.9762
  149POPC   H7S19891   2.921   7.783   2.394 -1.9431  0.2135 -2.8080
  149POPC   C2819892   2.965   7.977   2.315  0.0009  0.8704 -0.1592
  149POPC   H8R19893   3.052   8.005   2.251 -0.9674 -0.5477 -2.1930
  149POPC   H8S19894   2.959   8.040   2.407 -1.9823 -1.5626  1.4911
  149POPC   C2919895   2.840   7.960   2.235 -0.3998  0.1595  0.1211
  149POPC   H9119896   2.862   7.929   2.132  1.3609  0.6286  0.3151
  149POPC  C21019897   2.716   7.998   2.274 -0.1976  0.3211 -1.3242
  149POPC  H10119898   2.629   7.975   2.211  0.0025 -3.4748 -0.4182
  149POPC  C21119899   2.682   8.056   2.408  0.5312  0.9284 -0.3077
  149POPC  H11R19900   2.762   8.054   2.484  0.4375  1.2342 -0.1995
  149POPC  H11S19901   2.598   8.007   2.461  0.3799  1.5626  0.0479
  149POPC  C21219902   2.621   8.195   2.407 -0.5816 -0.7258 -0.0465
  149POPC  H12R19903   2.517   8.192   2.368 -1.1715  1.0285  1.2433
  149POPC  H12S19904   2.677   8.258   2.334 -0.4800 -1.6439 -0.7791
  149POPC  C21319905   2.629   8.272   2.540  0.9537 -0.1205 -0.4694
  149POPC  H13R19906   2.602   8.378   2.523  0.0352 -0.7351 -3.3774
  149POPC  H13S19907   2.735   8.289   2.566  0.5264  1.0277  0.6350
  149POPC  C21419908   2.545   8.205   2.650 -0.5608  0.2359 -0.3091
  149POPC  H14R19909   2.598   8.110   2.673 -1.6276 -0.1254  0.7440
  149POPC  H14S19910   2.442   8.174   2.622 -0.0563 -0.9496 -0.8864
  149POPC  C21519911   2.550   8.287   2.779 -0.8905  0.5814  0.1693
  149POPC  H15R19912   2.518   8.389   2.748  3.1236  2.1709  0.5529
  149POPC  H15S19913   2.656   8.301   2.809 -0.0827  1.0803 -2.6041
  149POPC  C21619914   2.462   8.225   2.887 -0.5928  0.0285 -0.0337
  149POPC  H16R19915   2.487   8.116   2.890  0.1117  0.2015  0.8786
  149POPC  H16S19916   2.354   8.241   2.867 -1.0830 -0.6840  1.7978
  149POPC  C21719917   2.489   8.297   3.027 -0.1862  0.4525  0.4641
  149POPC  H17R19918   2.594   8.266   3.047  0.1908  1.6339  0.3993
  149POPC  H17S19919   2.433   8.267   3.117 -0.1242 -0.0495  0.3397
  149POPC  C21819920   2.467   8.445   3.020  0.9618 -0.0159 -0.5883
  149POPC  H18R19921   2.562   8.500   3.004  1.0577  0.5409  1.5667
  149POPC  H18S19922   2.427   8.493   3.111 -0.7612  1.1922 -1.9223
  149POPC  H18T19923   2.399   8.472   2.936  1.4739 -2.4436 -1.9036
  149POPC   C3319924   2.990   7.014   2.366 -0.1795 -0.5039 -0.9005
  149POPC   H3X19925   3.020   6.907   2.371  0.7063 -0.2029  1.5062
  149POPC   H3Y19926   2.882   7.027   2.346 -0.5707 -1.3995  0.5098
  149POPC   C3419927   3.019   7.078   2.502  0.3367  0.5147 -0.2610
  149POPC   H4X19928   2.980   7.181   2.513  0.9249  0.5775  1.7005
  149POPC   H4Y19929   3.129   7.089   2.511  0.6535 -1.5076 -1.1311
  149POPC   C3519930   2.957   7.003   2.617  0.0186  0.6740 -0.3441
  149POPC   H5X19931   2.975   6.895   2.604 -0.2050  0.5281  0.4472
  149POPC   H5Y19932   2.847   7.018   2.632 -0.3960 -2.2791  0.0216
  149POPC   C3619933   3.003   7.039   2.757  0.5303  0.2181 -0.8733
  149POPC   H6X19934   2.964   7.140   2.782 -0.2519 -0.1109 -0.7102
  149POPC   H6Y19935   3.113   7.033   2.765  0.4300 -2.1463 -0.4531
  149POPC   C3719936   2.944   6.937   2.858 -0.3248  0.0156 -0.6839
  149POPC   H7X19937   2.976   6.832   2.840 -0.0795  0.0556 -0.5019
  149POPC   H7Y19938   2.834   6.937   2.841 -0.0798  1.3110 -2.5697
  149POPC   C3819939   2.969   6.983   3.004 -0.5322  0.3523 -0.0305
  149POPC   H8X19940   2.940   7.089   3.014 -1.8568 -0.0112  0.1664
  149POPC   H8Y19941   3.079   6.986   3.015 -0.4202  0.4672 -1.1065
  149POPC   C3919942   2.901   6.896   3.121 -0.4602  0.6947 -0.4320
  149POPC   H9X19943   2.960   6.802   3.114 -0.5835  0.2682  2.6315
  149POPC   H9Y19944   2.792   6.887   3.107 -0.3287  1.3695 -2.0674
  149POPC  C31019945   2.931   6.953   3.262 -0.2181  0.0769  0.0222
  149POPC  H10X19946   2.897   7.059   3.260  2.0917  0.8503 -1.2554
  149POPC  H10Y19947   3.039   6.960   3.285 -0.3496  0.9435  0.4307
  149POPC  C31119948   2.862   6.870   3.369  0.1462  0.3108  0.3485
  149POPC  H11X19949   2.880   6.764   3.341 -2.8884 -0.2797  0.3319
  149POPC  H11Y19950   2.752   6.863   3.360  0.1501 -4.7109  1.2682
  149POPC  C31219951   2.904   6.892   3.511  0.0772 -0.4338  0.5827
  149POPC  H12X19952   3.014   6.889   3.501  0.0161 -1.8473  0.1158
  149POPC  H12Y19953   2.882   6.808   3.580  3.5175 -1.9496  0.0357
  149POPC  C31319954   2.857   7.035   3.569  0.3570  0.4281  0.2078
  149POPC  H13X19955   2.893   7.121   3.508 -0.1575 -0.6080 -1.6139
  149POPC  H13Y19956   2.903   7.064   3.666 -2.2198  0.7554  1.4206
  149POPC  C31419957   2.707   7.062   3.574  0.3815 -0.1771  0.4807
  149POPC  H14X19958   2.647   6.977   3.613 -1.0590  0.6409  0.1328
  149POPC  H14Y19959   2.679   7.059   3.466 -1.5532  0.4421  0.9080
  149POPC  C31519960   2.676   7.195   3.636 -0.4944  0.5432  0.2296
  149POPC  H15X19961   2.570   7.218   3.614 -0.0250  2.0736 -0.5665
  149POPC  H15Y19962   2.742   7.271   3.589  0.8303 -0.9171 -0.3548
  149POPC  C31619963   2.696   7.194   3.782  0.2314 -0.6447 -1.0854
  149POPC  H16X19964   2.789   7.143   3.815  1.4703  1.0586 -1.8230
  149POPC  H16Y19965   2.624   7.127   3.833  2.7002 -1.9434  0.9530
  149POPC  H16Z19966   2.691   7.295   3.827  1.6058 -1.7006  1.6690
  150POPC     N19967   7.137   3.785   1.847  0.2312 -0.3704  0.1795
  150POPC   C1219968   7.131   3.831   1.995  0.2989 -0.0277  0.3326
  150POPC  H12A19969   7.055   3.906   2.011 -1.0945 -1.2345 -0.3832
  150POPC  H12B19970   7.228   3.875   2.012 -0.1883  1.5219 -0.6789
  150POPC   C1319971   7.182   3.905   1.759 -0.1174  0.5523 -0.1039
  150POPC  H13A19972   7.269   3.958   1.794 -0.2986  0.9442 -0.2471
  150POPC  H13B19973   7.191   3.872   1.656 -3.0865 -0.9530 -0.0093
  150POPC  H13C19974   7.112   3.986   1.772 -3.1016 -1.8190 -0.0471
  150POPC   C1419975   7.240   3.683   1.825 -0.2162  0.4228  1.0771
  150POPC  H14A19976   7.338   3.711   1.860  0.8325 -0.9710 -0.6172
  150POPC  H14B19977   7.218   3.582   1.856  1.1036 -0.7309 -1.4922
  150POPC  H14C19978   7.239   3.663   1.719 -0.0525 -0.1172  1.1723
  150POPC   C1519979   7.002   3.724   1.808  0.0326 -0.6875  0.1909
  150POPC  H15A19980   6.928   3.803   1.807  0.6455 -0.0994  0.1178
  150POPC  H15B19981   6.973   3.647   1.878  2.6700  1.3358  3.8616
  150POPC  H15C19982   7.002   3.689   1.706  3.3840  0.8435 -0.4797
  150POPC   C1119983   7.098   3.728   2.101  0.3583  0.1113  0.0599
  150POPC  H11A19984   7.126   3.768   2.200  0.3086  1.9381 -0.6262
  150POPC  H11B19985   7.159   3.641   2.068  3.4259  0.7175  3.5132
  150POPC     P19986   6.834   3.761   2.157 -0.6490  0.0372 -0.3585
  150POPC   O1319987   6.717   3.706   2.094 -0.2011  0.0249  0.3858
  150POPC   O1419988   6.846   3.907   2.171  0.1338 -0.2308 -0.1536
  150POPC   O1219989   6.956   3.694   2.089  0.1090  0.5965 -0.2851
  150POPC   O1119990   6.825   3.702   2.309  0.1593  0.0283  0.2807
  150POPC    C119991   6.940   3.737   2.394 -0.4152 -0.5285  0.0817
  150POPC    HA19992   6.987   3.829   2.356 -2.2251  0.1597 -0.6197
  150POPC    HB19993   7.006   3.648   2.402 -1.3754 -1.1810  1.0215
  150POPC    C219994   6.900   3.767   2.537  0.0350  0.0200 -0.2853
  150POPC    HS19995   6.984   3.798   2.603 -1.8265  2.9990  0.9094
  150POPC   O2119996   6.834   3.653   2.596 -0.3729  0.0335 -0.0987
  150POPC   C2119997   6.913   3.573   2.659 -0.3165 -0.4779  0.5207
  150POPC   O2219998   7.037   3.578   2.662  0.3003 -0.0266  0.0653
  150POPC   C2219999   6.832   3.477   2.733 -0.4192  0.0135 -0.2296
  150POPC   H2R20000   6.789   3.413   2.653  2.0201 -1.8708 -0.1635
  150POPC   H2S20001   6.756   3.534   2.791 -1.3885 -0.7257 -0.7334
  150POPC    C320002   6.800   3.886   2.548 -0.6105  0.0174 -0.0454
  150POPC    HX20003   6.710   3.853   2.492 -0.1783 -0.8503 -0.2334
  150POPC    HY20004   6.842   3.972   2.491  1.2751 -0.0570  1.1248
  150POPC   O3120005   6.788   3.940   2.678 -0.0186  0.2422  0.7964
  150POPC   C3120006   6.721   4.057   2.693 -0.4691 -0.1667  0.8161
  150POPC   O3220007   6.645   4.114   2.614 -0.4185  0.3383  0.4902
  150POPC   C3220008   6.729   4.084   2.844 -0.3289  0.1527 -0.2546
  150POPC   H2X20009   6.835   4.112   2.858 -0.7492  1.4587  0.6337
  150POPC   H2Y20010   6.707   3.991   2.900 -1.0668  0.8060  0.5829
  150POPC   C2320011   6.909   3.387   2.832  0.1260 -0.3299 -0.0568
  150POPC   H3R20012   6.986   3.447   2.884  0.8975 -0.6418 -0.8104
  150POPC   H3S20013   6.964   3.308   2.775 -0.2721 -1.0048  0.4812
  150POPC   C2420014   6.818   3.311   2.932 -0.7428 -0.6560 -0.0407
  150POPC   H4R20015   6.731   3.265   2.880  0.7650 -1.1938 -2.2263
  150POPC   H4S20016   6.784   3.391   3.001  0.4454 -1.2546  1.2825
  150POPC   C2520017   6.886   3.201   3.017  0.2495  0.2425  0.2300
  150POPC   H5R20018   6.969   3.155   2.959  1.8988  0.5917  2.2056
  150POPC   H5S20019   6.809   3.122   3.024 -0.1556  0.5926 -0.2101
  150POPC   C2620020   6.933   3.238   3.159 -0.5722 -0.3662 -0.1700
  150POPC   H6R20021   6.940   3.156   3.234 -0.9180 -0.6772 -0.4749
  150POPC   H6S20022   6.850   3.306   3.188 -0.9370 -0.3260 -1.2485
  150POPC   C2720023   7.066   3.320   3.145 -0.0144  0.4344  0.1056
  150POPC   H7R20024   7.046   3.422   3.108  0.2215  1.1662  1.8683
  150POPC   H7S20025   7.141   3.274   3.077 -1.0801  0.1749 -0.9197
  150POPC   C2820026   7.135   3.328   3.284 -0.2131 -0.0484  0.4264
  150POPC   H8R20027   7.237   3.370   3.270 -0.1762 -0.5184 -0.9515
  150POPC   H8S20028   7.155   3.226   3.322 -0.7830 -0.6967 -0.9182
  150POPC   C2920029   7.054   3.417   3.377  0.3654  0.8778  0.1125
  150POPC   H9120030   7.055   3.525   3.353  0.3163  1.0613  0.9093
  150POPC  C21020031   6.999   3.382   3.493  0.5465 -0.3701 -0.5357
  150POPC  H10120032   6.941   3.455   3.551  2.4478  1.0759 -0.3614
  150POPC  C21120033   6.992   3.246   3.548  0.3963 -0.6748 -0.1480
  150POPC  H11R20034   7.050   3.170   3.490 -0.4979 -1.8564  0.4595
  150POPC  H11S20035   6.886   3.214   3.557 -0.2508  1.7466  2.2955
  150POPC  C21220036   7.044   3.245   3.698 -0.6672  0.2308 -0.1387
  150POPC  H12R20037   7.012   3.143   3.728 -1.0821  0.3463 -0.1902
  150POPC  H12S20038   6.991   3.318   3.761 -0.2988 -1.4087  2.2009
  150POPC  C21320039   7.199   3.268   3.705  0.2309 -0.4247 -0.1155
  150POPC  H13R20040   7.220   3.364   3.653  2.2858 -0.1890  1.0383
  150POPC  H13S20041   7.254   3.186   3.653  2.5781  1.0721 -0.1288
  150POPC  C21420042   7.256   3.288   3.843  0.0343  0.5443  0.6749
  150POPC  H14R20043   7.202   3.224   3.915 -1.4304  2.3663  1.2835
  150POPC  H14S20044   7.253   3.393   3.879  1.1847  1.0435 -0.5855
  150POPC  C21520045   7.406   3.258   3.838 -0.1601 -0.7051 -0.0352
  150POPC  H15R20046   7.438   3.329   3.759 -1.8337  1.5205  1.1795
  150POPC  H15S20047   7.420   3.151   3.811 -0.7872 -0.4687 -1.3872
  150POPC  C21620048   7.480   3.288   3.964  0.0635  0.3983 -0.9453
  150POPC  H16R20049   7.445   3.222   4.047 -0.3827  0.8283 -0.7903
  150POPC  H16S20050   7.476   3.396   3.991 -1.6876  0.1474 -0.0479
  150POPC  C21720051   7.627   3.259   3.943 -0.6345 -0.1525  0.0459
  150POPC  H17R20052   7.685   3.331   4.004  0.8823 -0.7062 -0.6600
  150POPC  H17S20053   7.655   3.273   3.836  1.0393 -1.3105  0.2785
  150POPC  C21820054   7.667   3.114   3.977 -0.1076  0.2214 -0.8299
  150POPC  H18R20055   7.636   3.083   4.079 -1.7243 -0.4470 -1.4953
  150POPC  H18S20056   7.778   3.101   3.969 -0.0658  0.5849 -0.8409
  150POPC  H18T20057   7.621   3.049   3.900  0.7169 -0.7486 -0.5324
  150POPC   C3320058   6.648   4.211   2.888 -0.5120  0.3446  0.0233
  150POPC   H3X20059   6.542   4.179   2.876  0.1828 -2.5841  0.6900
  150POPC   H3Y20060   6.664   4.303   2.829 -1.0376  1.8289  2.0666
  150POPC   C3420061   6.675   4.235   3.043  1.0413 -0.2682  0.2641
  150POPC   H4X20062   6.593   4.305   3.069 -0.6797 -1.6323 -1.2737
  150POPC   H4Y20063   6.773   4.278   3.075  2.1890 -1.6713 -1.1845
  150POPC   C3520064   6.630   4.112   3.129 -0.3372 -0.4713  0.9043
  150POPC   H5X20065   6.710   4.035   3.137  0.1449  0.0946  1.6930
  150POPC   H5Y20066   6.547   4.068   3.070  0.7852  1.5707 -2.4788
  150POPC   C3620067   6.575   4.160   3.269  0.4602 -0.4172  0.2835
  150POPC   H6X20068   6.510   4.244   3.238  0.8511  0.4584  1.7532
  150POPC   H6Y20069   6.650   4.198   3.342 -0.0590  0.2722  0.4702
  150POPC   C3720070   6.496   4.059   3.347 -0.1189  0.1517  0.4855
  150POPC   H7X20071   6.563   3.975   3.376 -0.5939 -0.8576 -1.2296
  150POPC   H7Y20072   6.416   4.021   3.280 -1.0047 -0.2622  1.7326
  150POPC   C3820073   6.425   4.107   3.477  0.1237 -0.1970 -0.0543
  150POPC   H8X20074   6.375   4.201   3.445  2.3696  0.8197 -0.7786
  150POPC   H8Y20075   6.495   4.140   3.556 -0.8085 -2.3669  1.7843
  150POPC   C3920076   6.325   4.003   3.529  0.2016 -0.3100  0.3271
  150POPC   H9X20077   6.381   3.919   3.575 -2.9447 -1.9817  1.4194
  150POPC   H9Y20078   6.252   3.968   3.452 -0.7869  1.0624  0.5909
  150POPC  C31020079   6.232   4.077   3.634  0.3009 -0.0266  0.0641
  150POPC  H10X20080   6.178   4.154   3.575  0.5221 -0.3406 -0.5566
  150POPC  H10Y20081   6.296   4.114   3.717 -0.3611  0.1581  0.5055
  150POPC  C31120082   6.125   3.980   3.694 -0.3216  0.8763  0.3846
  150POPC  H11X20083   6.168   3.887   3.736 -0.4815  0.7267  0.2200
  150POPC  H11Y20084   6.052   3.952   3.616  0.5145 -0.9061  0.2078
  150POPC  C31220085   6.046   4.053   3.801 -0.2557  0.0543 -0.1667
  150POPC  H12X20086   6.032   4.162   3.779  0.2023  0.6745  2.3848
  150POPC  H12Y20087   6.116   4.039   3.886 -1.2733 -2.7731  0.2826
  150POPC  C31320088   5.910   4.000   3.830 -0.2428  0.4867  0.2545
  150POPC  H13X20089   5.923   3.890   3.844 -0.3196  0.3230 -0.8252
  150POPC  H13Y20090   5.845   4.012   3.741  0.7339 -1.1038 -0.7477
  150POPC  C31420091   5.843   4.078   3.947  0.0340  0.0473 -0.4443
  150POPC  H14X20092   5.832   4.187   3.933 -0.9108  0.3842  2.2935
  150POPC  H14Y20093   5.911   4.060   4.034 -0.8839 -4.8074 -0.4195
  150POPC  C31520094   5.700   4.027   3.985 -0.5337  0.3633  0.0435
  150POPC  H15X20095   5.692   3.918   4.002  0.0888  0.1298 -1.0733
  150POPC  H15Y20096   5.644   4.051   3.891  1.1106  0.3058 -0.9933
  150POPC  C31620097   5.634   4.111   4.096  0.2635  0.6692  0.6389
  150POPC  H16X20098   5.618   4.215   4.059  0.0042  0.2183 -0.5572
  150POPC  H16Y20099   5.704   4.107   4.182 -0.2468  0.2406  1.0413
  150POPC  H16Z20100   5.532   4.078   4.123 -0.1560  0.6123 -0.8946
  151POPC     N20101   5.513   5.227   2.043  0.4624  0.5212 -0.2515
  151POPC   C1220102   5.468   5.335   2.138  0.0447 -0.5911 -0.1665
  151POPC  H12A20103   5.431   5.421   2.085  0.7892  0.0475  0.3353
  151POPC  H12B20104   5.557   5.375   2.184  0.8385 -0.9349 -1.3508
  151POPC   C1320105   5.602   5.294   1.939  0.1035 -0.0034  0.1151
  151POPC  H13A20106   5.650   5.216   1.882  0.6083  0.3800  0.0036
  151POPC  H13B20107   5.543   5.358   1.875  1.2962  1.6963  0.6523
  151POPC  H13C20108   5.679   5.355   1.983 -0.8132  0.2893  1.3517
  151POPC   C1420109   5.580   5.112   2.113  0.1320 -0.1688  0.3808
  151POPC  H14A20110   5.605   5.034   2.043  0.0728 -0.9437  1.2049
  151POPC  H14B20111   5.670   5.142   2.164  1.4167 -3.6163  0.4032
  151POPC  H14C20112   5.509   5.073   2.185 -2.4765  3.0508 -0.1876
  151POPC   C1520113   5.410   5.174   1.945  0.5396 -0.5064 -0.7471
  151POPC  H15A20114   5.362   5.254   1.891 -3.3600 -1.1898  1.3130
  151POPC  H15B20115   5.333   5.132   2.008 -0.6249  1.5050 -0.7338
  151POPC  H15C20116   5.449   5.101   1.877  2.0411 -2.2846  1.8466
  151POPC   C1120117   5.372   5.301   2.251 -0.0539  0.4834  0.1844
  151POPC  H11A20118   5.379   5.381   2.328 -0.2632 -0.9037  1.7001
  151POPC  H11B20119   5.392   5.196   2.283 -1.1839 -0.0546 -0.7817
  151POPC     P20120   5.138   5.420   2.176  0.4162  0.3022  0.2848
  151POPC   O1320121   5.011   5.386   2.252  0.0524  0.4287  0.3834
  151POPC   O1420122   5.115   5.440   2.027  0.0028  0.4159  0.5694
  151POPC   O1220123   5.245   5.305   2.190 -0.6395  0.7085 -0.4286
  151POPC   O1120124   5.207   5.545   2.230  0.4920  0.0952  0.0333
  151POPC    C120125   5.217   5.566   2.366  0.1957 -0.2892  0.3063
  151POPC    HA20126   5.323   5.596   2.385 -0.1948  1.8337 -0.5980
  151POPC    HB20127   5.187   5.476   2.424 -1.6568  0.2089  0.1761
  151POPC    C220128   5.129   5.690   2.401 -0.2441  0.3987 -0.1581
  151POPC    HS20129   5.154   5.770   2.329 -0.2610  0.9133  0.3960
  151POPC   O2120130   5.161   5.721   2.543 -0.3688  0.4218  0.9756
  151POPC   C2120131   5.128   5.835   2.598 -0.1876 -0.0922  0.4680
  151POPC   O2220132   5.090   5.932   2.532  0.2735 -0.1586  0.4485
  151POPC   C2220133   5.155   5.834   2.748  0.4066 -0.3550 -0.3634
  151POPC   H2R20134   5.208   5.923   2.788 -0.9652 -0.2522  1.3451
  151POPC   H2S20135   5.213   5.742   2.772 -1.4044 -1.2823  0.6570
  151POPC    C320136   4.978   5.662   2.387 -0.7145 -0.4844 -0.3964
  151POPC    HX20137   4.960   5.586   2.466 -2.1911 -0.6295 -0.8465
  151POPC    HY20138   4.970   5.615   2.286  1.3477  0.3608 -1.0036
  151POPC   O3120139   4.899   5.779   2.395  0.2277  0.7024 -0.5091
  151POPC   C3120140   4.777   5.756   2.449 -0.4740  0.7408 -0.6143
  151POPC   O3220141   4.740   5.648   2.496 -0.7234 -0.6944 -0.2294
  151POPC   C3220142   4.698   5.885   2.457  0.4046  0.5529 -0.0610
  151POPC   H2X20143   4.641   5.885   2.362 -1.1529 -2.8074  0.7078
  151POPC   H2Y20144   4.778   5.962   2.455  1.4575 -0.4663  1.2980
  151POPC   C2320145   5.023   5.827   2.833  0.3805  0.9514 -0.2659
  151POPC   H3R20146   4.947   5.896   2.791 -1.6479 -0.6737  0.5653
  151POPC   H3S20147   5.053   5.843   2.939  2.4998  1.1314 -0.8568
  151POPC   C2420148   4.972   5.679   2.847  0.2999  0.2299  0.5115
  151POPC   H4R20149   5.034   5.613   2.911  1.0617  1.2339  0.8239
  151POPC   H4S20150   4.951   5.639   2.745 -1.6213 -1.4625  1.4844
  151POPC   C2520151   4.836   5.695   2.917  0.0802  0.0288 -0.1083
  151POPC   H5R20152   4.790   5.776   2.856  1.4166  0.4031 -0.6455
  151POPC   H5S20153   4.847   5.732   3.022 -1.5619  2.8004 -0.8142
  151POPC   C2620154   4.744   5.575   2.913  0.8023  0.4352 -0.2310
  151POPC   H6R20155   4.794   5.491   2.965 -0.3571 -0.4238 -0.4606
  151POPC   H6S20156   4.730   5.529   2.813  1.8431 -1.2768  0.3621
  151POPC   C2720157   4.606   5.596   2.969 -0.3923 -0.5381 -0.4458
  151POPC   H7R20158   4.548   5.676   2.918 -0.8130 -1.3408 -1.2551
  151POPC   H7S20159   4.627   5.624   3.075  0.5353  2.5472 -1.3571
  151POPC   C2820160   4.518   5.467   2.966 -0.5112  0.3494  0.5500
  151POPC   H8R20161   4.446   5.484   3.048  1.4941 -0.5104  2.5918
  151POPC   H8S20162   4.570   5.376   3.004  0.0199  0.7467  0.7771
  151POPC   C2920163   4.443   5.447   2.832  0.4318  0.0439  0.6407
  151POPC   H9120164   4.413   5.542   2.785  0.1415  1.2070  3.0618
  151POPC  C21020165   4.430   5.325   2.774  0.1051  0.2104  0.3875
  151POPC  H10120166   4.363   5.313   2.688  2.5217  0.5631 -1.6654
  151POPC  C21120167   4.498   5.199   2.819 -0.0437 -0.0289 -0.0994
  151POPC  H11R20168   4.418   5.127   2.846 -1.0505  1.3587  0.7562
  151POPC  H11S20169   4.548   5.210   2.918  1.4220  0.5158 -0.8671
  151POPC  C21220170   4.611   5.153   2.735 -0.8391 -0.1802  0.3287
  151POPC  H12R20171   4.711   5.199   2.751  0.2401 -2.0430 -0.5868
  151POPC  H12S20172   4.583   5.169   2.628  0.3931 -0.9694 -0.1439
  151POPC  C21320173   4.640   5.002   2.730 -0.6420  0.7914 -0.4994
  151POPC  H13R20174   4.702   4.967   2.645  0.2709 -0.7387  0.7487
  151POPC  H13S20175   4.544   4.947   2.716  0.1493 -1.0122  0.7260
  151POPC  C21420176   4.703   4.952   2.868  0.0049  0.4346  0.8003
  151POPC  H14R20177   4.714   4.842   2.860 -1.7464  0.3355 -1.0207
  151POPC  H14S20178   4.634   4.977   2.951 -0.5791  2.2573 -0.1637
  151POPC  C21520179   4.839   5.012   2.908  0.4326  0.3772 -0.2152
  151POPC  H15R20180   4.823   5.121   2.922 -2.0104  0.2645 -1.5142
  151POPC  H15S20181   4.909   4.986   2.826 -0.4336  1.8047 -1.4342
  151POPC  C21620182   4.904   4.922   3.013 -1.1737  0.7195 -0.3350
  151POPC  H16R20183   4.923   4.818   2.980  1.8083  0.6445  1.2658
  151POPC  H16S20184   4.827   4.918   3.093 -1.5729  1.2012 -0.6900
  151POPC  C21720185   5.032   4.993   3.061  0.0005  0.1689 -1.2464
  151POPC  H17R20186   5.105   5.014   2.980  2.1693  0.9560  0.7974
  151POPC  H17S20187   5.079   4.920   3.130 -1.2096  1.2195  0.8180
  151POPC  C21820188   5.006   5.117   3.141 -0.6827  0.1038  0.5899
  151POPC  H18R20189   4.910   5.109   3.196 -1.3842 -1.4108 -0.7609
  151POPC  H18S20190   4.991   5.200   3.069  0.6337  0.8395  1.1189
  151POPC  H18T20191   5.095   5.146   3.200  0.6455  1.1070 -1.7482
  151POPC   C3320192   4.618   5.899   2.589  0.3221 -0.2470 -0.0408
  151POPC   H3X20193   4.673   5.879   2.683  0.3529 -0.4398 -0.0975
  151POPC   H3Y20194   4.540   5.820   2.599 -1.6457  1.1676 -2.9906
  151POPC   C3420195   4.563   6.043   2.614 -0.1200 -0.0271 -0.3183
  151POPC   H4X20196   4.497   6.044   2.703  1.0367 -0.8692  0.5952
  151POPC   H4Y20197   4.503   6.071   2.525  0.0217 -0.8553 -0.6893
  151POPC   C3520198   4.666   6.154   2.634 -0.1531 -0.5768 -0.6556
  151POPC   H5X20199   4.623   6.251   2.599  2.3824  0.6643 -0.5625
  151POPC   H5Y20200   4.746   6.135   2.559  0.3874  1.9373 -0.8004
  151POPC   C3620201   4.732   6.179   2.769 -0.5529  0.8675  0.0278
  151POPC   H6X20202   4.765   6.076   2.791  2.1953  1.5416 -0.5803
  151POPC   H6Y20203   4.673   6.211   2.857  0.3676 -1.5021  1.5927
  151POPC   C3720204   4.855   6.263   2.748  0.0199  0.4742 -0.1307
  151POPC   H7X20205   4.923   6.214   2.675 -1.7371 -1.4487 -0.5655
  151POPC   H7Y20206   4.899   6.270   2.849  0.1342 -0.1705 -0.1332
  151POPC   C3820207   4.836   6.414   2.699  0.3275 -0.4004 -0.6332
  151POPC   H8X20208   4.803   6.414   2.593  0.4780  1.2001 -0.7040
  151POPC   H8Y20209   4.939   6.455   2.706  0.6534 -1.4862  3.4890
  151POPC   C3920210   4.738   6.496   2.789 -0.6049  0.5074 -0.2675
  151POPC   H9X20211   4.633   6.471   2.764 -0.8966  1.5139 -0.0987
  151POPC   H9Y20212   4.761   6.601   2.764  1.5347  0.2213  0.2555
  151POPC  C31020213   4.743   6.485   2.944  0.4914  0.0225 -0.2797
  151POPC  H10X20214   4.850   6.515   2.954  0.8524 -1.0061 -0.8877
  151POPC  H10Y20215   4.730   6.387   2.994 -3.3210  1.5365  2.1127
  151POPC  C31120216   4.657   6.591   3.011 -0.2803 -0.4849  0.3464
  151POPC  H11X20217   4.550   6.573   2.990 -0.7989  1.4347  1.1110
  151POPC  H11Y20218   4.678   6.685   2.955 -1.6571 -0.5935 -0.3800
  151POPC  C31220219   4.680   6.612   3.158 -0.0736 -0.4224 -0.0533
  151POPC  H12X20220   4.788   6.638   3.158  0.0444 -0.6963 -2.1298
  151POPC  H12Y20221   4.671   6.514   3.210 -1.7646  0.4306  1.3255
  151POPC  C31320222   4.579   6.710   3.216  0.3423 -0.5108  0.3923
  151POPC  H13X20223   4.472   6.689   3.195  0.3846  0.5577 -0.9960
  151POPC  H13Y20224   4.588   6.805   3.159 -0.4977 -0.8839 -0.3914
  151POPC  C31420225   4.599   6.716   3.373  0.5216  0.2518  0.1406
  151POPC  H14X20226   4.706   6.732   3.399  1.1116 -1.4559 -1.0526
  151POPC  H14Y20227   4.570   6.612   3.402  1.8529 -0.1902 -0.0541
  151POPC  C31520228   4.504   6.821   3.434  0.6166 -0.0451  0.0372
  151POPC  H15X20229   4.396   6.803   3.414  0.6576  1.8960 -2.4053
  151POPC  H15Y20230   4.530   6.918   3.387  0.3420 -0.0428 -0.1148
  151POPC  C31620231   4.518   6.833   3.584  0.5117 -0.1056  0.0172
  151POPC  H16X20232   4.621   6.868   3.610  0.6825  0.3058 -1.1558
  151POPC  H16Y20233   4.510   6.734   3.633 -1.0436 -0.5200 -1.0186
  151POPC  H16Z20234   4.439   6.895   3.632 -0.4019  0.0654 -1.6336
  152POPC     N20235   1.644   3.537   2.468  0.2524 -0.2598 -0.1308
  152POPC   C1220236   1.514   3.606   2.408 -0.1879 -0.6057  0.3086
  152POPC  H12A20237   1.436   3.612   2.482 -0.5509 -0.2300 -0.0995
  152POPC  H12B20238   1.487   3.549   2.320 -0.2551 -1.7588  1.0504
  152POPC   C1320239   1.762   3.566   2.382 -0.4434  0.0283  0.3332
  152POPC  H13A20240   1.765   3.672   2.363  0.9327  0.2606  1.6432
  152POPC  H13B20241   1.855   3.548   2.434  0.4750  1.8085 -0.5912
  152POPC  H13C20242   1.757   3.512   2.288 -0.2085  1.2709 -0.4234
  152POPC   C1420243   1.674   3.594   2.605  0.7726 -0.0462  0.0984
  152POPC  H14A20244   1.764   3.546   2.641  0.8686  0.8760  1.1595
  152POPC  H14B20245   1.703   3.698   2.600 -1.0832  0.4266 -1.9681
  152POPC  H14C20246   1.598   3.577   2.679  0.0042 -2.3421 -1.1504
  152POPC   C1520247   1.629   3.390   2.485 -0.1300  0.1031  0.0479
  152POPC  H15A20248   1.596   3.339   2.396  2.9044 -0.1716 -1.0442
  152POPC  H15B20249   1.556   3.364   2.560  0.1385  1.6405  0.8705
  152POPC  H15C20250   1.726   3.347   2.505  0.1237  0.1616 -0.9953
  152POPC   C1120251   1.528   3.756   2.358 -0.2491  0.1140 -0.4097
  152POPC  H11A20252   1.578   3.810   2.441  0.3961  1.6953 -1.7700
  152POPC  H11B20253   1.424   3.793   2.348 -0.2905  1.1429  2.7800
  152POPC     P20254   1.560   3.713   2.103 -0.1578 -0.0573  0.0482
  152POPC   O1320255   1.520   3.574   2.122 -0.8164 -0.6401  0.3380
  152POPC   O1420256   1.662   3.739   2.001  0.6151 -0.4784 -0.5247
  152POPC   O1220257   1.612   3.772   2.241 -0.1536 -0.6764  0.4469
  152POPC   O1120258   1.436   3.798   2.080 -0.3910 -0.4136 -0.0410
  152POPC    C120259   1.444   3.936   2.041 -0.5154 -0.8444  0.4934
  152POPC    HA20260   1.400   3.946   1.939  1.7227  0.0205 -0.4418
  152POPC    HB20261   1.544   3.982   2.032 -0.4748 -1.0184  0.0262
  152POPC    C220262   1.341   4.032   2.115 -0.1132  0.3701  0.9446
  152POPC    HS20263   1.342   4.130   2.063 -0.1106 -0.1782 -0.1344
  152POPC   O2120264   1.364   4.036   2.258 -0.0226  0.0140  0.2610
  152POPC   C2120265   1.418   4.148   2.310 -0.6820 -0.5026 -0.1030
  152POPC   O2220266   1.440   4.251   2.248 -0.1791 -0.1942  0.2425
  152POPC   C2220267   1.452   4.137   2.459 -0.6543  0.5668 -0.0653
  152POPC   H2R20268   1.527   4.217   2.478 -0.7934  0.8748 -0.7746
  152POPC   H2S20269   1.489   4.037   2.488 -0.3416  0.6248 -0.2572
  152POPC    C320270   1.196   3.973   2.110  0.0314 -0.4135 -0.2468
  152POPC    HX20271   1.181   3.869   2.145 -3.1525 -0.3639 -1.1899
  152POPC    HY20272   1.173   3.970   2.001 -0.5988  1.3892 -0.1919
  152POPC   O3120273   1.095   4.049   2.176 -0.7143  0.1147  0.6033
  152POPC   C3120274   1.047   4.159   2.112 -0.0034  0.6750  0.0223
  152POPC   O3220275   1.059   4.175   1.993 -0.4668  0.0443  0.0957
  152POPC   C3220276   0.962   4.243   2.207 -0.2854  0.4339 -0.5211
  152POPC   H2X20277   0.873   4.181   2.229 -1.2042  1.5784 -0.9142
  152POPC   H2Y20278   0.931   4.330   2.144  2.9725  1.5537 -0.7896
  152POPC   C2320279   1.328   4.174   2.546  0.5443  0.0246 -0.6836
  152POPC   H3R20280   1.245   4.109   2.511  0.6510 -1.5991  1.7608
  152POPC   H3S20281   1.294   4.279   2.535 -0.7856  0.3126  3.9445
  152POPC   C2420282   1.366   4.158   2.692  0.0041  0.1363  0.3292
  152POPC   H4R20283   1.450   4.230   2.704  0.4344 -0.4593  0.9732
  152POPC   H4S20284   1.406   4.058   2.719 -0.8894 -0.4487 -0.4537
  152POPC   C2520285   1.255   4.184   2.786  0.2664  0.4719  0.1494
  152POPC   H5R20286   1.183   4.100   2.780 -2.1786  2.4031  0.5587
  152POPC   H5S20287   1.200   4.275   2.753 -1.2415  0.1852  1.7344
  152POPC   C2620288   1.290   4.196   2.930  0.9521  1.8074  0.7450
  152POPC   H6R20289   1.360   4.281   2.945  1.2493  1.3235  2.3325
  152POPC   H6S20290   1.339   4.106   2.974 -1.7800 -1.3618 -2.1490
  152POPC   C2720291   1.162   4.226   3.011 -0.1173 -0.6345 -0.5475
  152POPC   H7R20292   1.105   4.311   2.966  1.9080  1.1909  0.1284
  152POPC   H7S20293   1.197   4.268   3.108  1.0768 -0.4817 -1.0220
  152POPC   C2820294   1.064   4.109   3.051  0.2578 -0.3297  0.8283
  152POPC   H8R20295   1.011   4.069   2.962 -0.3022  0.6837  0.6881
  152POPC   H8S20296   0.975   4.153   3.101 -1.1207  1.1173 -2.5791
  152POPC   C2920297   1.118   3.993   3.129 -0.5179  0.4308 -0.4129
  152POPC   H9120298   1.194   3.940   3.069  0.6081 -0.1695  1.4677
  152POPC  C21020299   1.093   3.941   3.252  0.0814 -0.2109  0.1806
  152POPC  H10120300   1.153   3.856   3.288  2.2267  1.7371  1.4550
  152POPC  C21120301   0.994   3.999   3.347  0.2609  0.6572 -0.3066
  152POPC  H11R20302   0.961   4.105   3.336 -1.3985  0.1193 -0.8358
  152POPC  H11S20303   1.041   3.987   3.447  0.0069  0.0033 -0.2581
  152POPC  C21220304   0.858   3.927   3.336  0.0753 -0.0581  0.3815
  152POPC  H12R20305   0.871   3.816   3.339 -0.8675 -0.1615  2.5341
  152POPC  H12S20306   0.816   3.946   3.234  2.8162 -0.0482 -0.8300
  152POPC  C21320307   0.753   3.961   3.447  0.8852  0.7259  0.4669
  152POPC  H13R20308   0.772   4.060   3.494 -1.1626  1.8614 -0.9340
  152POPC  H13S20309   0.759   3.870   3.511  1.5498  0.0251 -0.5438
  152POPC  C21420310   0.615   3.954   3.394  0.5288 -0.1238 -0.2100
  152POPC  H14R20311   0.614   3.966   3.283 -0.2643 -1.8731 -0.4416
  152POPC  H14S20312   0.549   4.036   3.430 -0.0154 -1.2020  1.3525
  152POPC  C21520313   0.523   3.833   3.429 -0.5959 -0.6300  0.7848
  152POPC  H15R20314   0.422   3.878   3.418 -0.4814 -0.8961 -2.1935
  152POPC  H15S20315   0.546   3.809   3.535 -0.1868  1.7915  1.3021
  152POPC  C21620316   0.536   3.710   3.331  0.3043 -0.2798  0.2031
  152POPC  H16R20317   0.642   3.678   3.326  0.5314  0.2380  1.4353
  152POPC  H16S20318   0.503   3.747   3.231  0.5940 -1.8036 -0.4750
  152POPC  C21720319   0.451   3.579   3.372  0.2089 -0.1014 -0.8440
  152POPC  H17R20320   0.432   3.534   3.272 -2.8620  0.2113 -0.5013
  152POPC  H17S20321   0.352   3.615   3.406 -0.1972 -0.6138 -1.4708
  152POPC  C21820322   0.507   3.480   3.470  0.1114  0.5711 -0.5922
  152POPC  H18R20323   0.508   3.526   3.571 -0.8715  2.3225 -1.3308
  152POPC  H18S20324   0.610   3.445   3.448 -0.2094 -0.0013 -1.2129
  152POPC  H18T20325   0.445   3.389   3.485  1.5869 -0.4593 -0.5703
  152POPC   C3320326   1.037   4.267   2.337  0.1677 -0.3660  0.1485
  152POPC   H3X20327   1.140   4.297   2.310 -0.1531 -0.5569 -1.3545
  152POPC   H3Y20328   1.051   4.175   2.397  0.7124 -0.7173 -0.5036
  152POPC   C3420329   0.972   4.388   2.402 -0.4159 -0.8539 -0.7409
  152POPC   H4X20330   0.861   4.381   2.407 -0.3728 -0.8287  0.5626
  152POPC   H4Y20331   0.994   4.484   2.350 -0.2408 -0.6065 -0.2089
  152POPC   C3520332   1.038   4.404   2.547 -0.1633  0.3630 -0.5675
  152POPC   H5X20333   1.144   4.426   2.524  0.4087 -1.6086  0.0195
  152POPC   H5Y20334   1.039   4.304   2.596 -0.2376  1.5663  2.0585
  152POPC   C3620335   0.975   4.516   2.621 -0.3768  0.2013 -0.4416
  152POPC   H6X20336   0.875   4.477   2.649 -0.4456  0.7090  0.0577
  152POPC   H6Y20337   0.955   4.602   2.553 -2.1503  1.9609  2.0858
  152POPC   C3720338   1.061   4.575   2.736 -0.0239  0.2184  0.5718
  152POPC   H7X20339   1.138   4.638   2.685  0.8494 -2.3500 -1.4855
  152POPC   H7Y20340   1.127   4.502   2.787  0.3294  1.3828  1.8398
  152POPC   C3820341   0.973   4.660   2.823 -0.1136 -0.1220 -0.8253
  152POPC   H8X20342   0.893   4.593   2.860  1.2520 -2.0708 -1.2649
  152POPC   H8Y20343   0.925   4.742   2.766  0.0708 -0.7508 -1.8955
  152POPC   C3920344   1.061   4.712   2.938 -0.2318 -0.2484  0.0795
  152POPC   H9X20345   1.158   4.747   2.897 -0.3493 -0.2259 -0.1814
  152POPC   H9Y20346   1.085   4.635   3.014  1.6784  0.7563  0.5545
  152POPC  C31020347   0.995   4.836   3.004  0.2503  0.2583 -0.2392
  152POPC  H10X20348   0.982   4.912   2.924  1.1208  4.6283  3.3559
  152POPC  H10Y20349   1.075   4.877   3.069  1.4419 -1.3571 -0.6418
  152POPC  C31120350   0.858   4.823   3.081  0.3362 -0.1330 -0.0959
  152POPC  H11X20351   0.867   4.752   3.165  1.2747  0.1463  0.0625
  152POPC  H11Y20352   0.778   4.786   3.014  0.7066 -0.9946 -0.0655
  152POPC  C31220353   0.811   4.959   3.134 -0.2166  0.5293  0.1783
  152POPC  H12X20354   0.714   4.933   3.182 -1.0444 -0.0551 -1.7215
  152POPC  H12Y20355   0.790   5.031   3.052  0.4344 -0.0535 -0.5088
  152POPC  C31320356   0.902   5.024   3.245  0.2275 -0.6895  0.1230
  152POPC  H13X20357   0.837   5.096   3.298  1.6523 -1.6486  3.4458
  152POPC  H13Y20358   0.982   5.087   3.200 -2.0399  1.4417 -1.1591
  152POPC  C31420359   0.961   4.949   3.360  0.5976  0.0490 -0.1598
  152POPC  H14X20360   1.046   4.882   3.331  0.4653 -1.0154  1.7491
  152POPC  H14Y20361   0.884   4.878   3.396  0.0556 -0.5400 -2.3346
  152POPC  C31520362   1.018   5.039   3.475  0.4036  0.4295  0.3044
  152POPC  H15X20363   0.941   5.115   3.502  0.6978  0.8081  0.0885
  152POPC  H15Y20364   1.112   5.083   3.435  1.5293 -1.2203  1.0482
  152POPC  C31620365   1.063   4.953   3.600 -0.2499  0.1941 -0.3414
  152POPC  H16X20366   0.996   4.865   3.616  0.7846 -0.9096 -1.7896
  152POPC  H16Y20367   1.061   5.008   3.697  1.9638 -0.8274  0.3473
  152POPC  H16Z20368   1.163   4.906   3.595  0.3926  1.6614 -2.5345
  153POPC     N20369   2.355   4.214   2.430 -0.0051  0.7355 -0.6175
  153POPC   C1220370   2.365   4.199   2.286 -0.3876  0.0358  0.0360
  153POPC  H12A20371   2.283   4.250   2.238 -1.5985 -0.6011  1.3453
  153POPC  H12B20372   2.353   4.094   2.263 -1.8744  0.0816  0.4922
  153POPC   C1320373   2.473   4.169   2.502 -0.9102  0.5695 -0.0807
  153POPC  H13A20374   2.486   4.064   2.484  1.4735  0.6261  0.9263
  153POPC  H13B20375   2.564   4.211   2.461 -1.2320 -0.1957 -1.6641
  153POPC  H13C20376   2.458   4.189   2.607  0.5698  3.8095 -0.3578
  153POPC   C1420377   2.341   4.362   2.457 -0.1069  0.6671  0.1815
  153POPC  H14A20378   2.338   4.371   2.564  0.2543 -2.8757  0.6339
  153POPC  H14B20379   2.434   4.408   2.429 -0.0736 -0.9302 -2.8022
  153POPC  H14C20380   2.252   4.406   2.414 -0.3841  0.8979  0.9760
  153POPC   C1520381   2.236   4.138   2.488 -0.1191 -0.1076  0.0703
  153POPC  H15A20382   2.151   4.144   2.421  0.0205 -0.7469 -0.1743
  153POPC  H15B20383   2.208   4.176   2.585 -1.7640  0.3043 -0.5462
  153POPC  H15C20384   2.251   4.031   2.496  0.6266  0.0971  2.0050
  153POPC   C1120385   2.499   4.251   2.223 -0.5547 -0.1552 -0.2470
  153POPC  H11A20386   2.517   4.357   2.250  2.8929 -0.3235 -1.4005
  153POPC  H11B20387   2.480   4.262   2.114  2.9912 -0.5127 -1.0318
  153POPC     P20388   2.620   4.019   2.188  0.6446  0.6213  0.1622
  153POPC   O1320389   2.653   4.035   2.044  0.4424 -0.1975  0.3820
  153POPC   O1420390   2.502   3.936   2.221 -0.0745 -0.4187  0.0766
  153POPC   O1220391   2.620   4.165   2.257 -0.1362 -0.2094  0.2243
  153POPC   O1120392   2.746   3.956   2.243  0.1455 -0.0772  0.0955
  153POPC    C120393   2.872   4.023   2.241  0.4012 -0.8793 -0.1152
  153POPC    HA20394   2.859   4.128   2.205 -2.6913  0.2033  3.5537
  153POPC    HB20395   2.937   3.973   2.166  0.2360  0.3939 -1.1458
  153POPC    C220396   2.943   4.019   2.383 -0.4630 -0.1827  0.5038
  153POPC    HS20397   3.051   4.028   2.360 -0.3843  1.1824  1.2940
  153POPC   O2120398   2.913   3.905   2.468 -0.1250  0.0858 -0.4791
  153POPC   C2120399   2.954   3.795   2.414 -0.5479 -0.2185  0.2320
  153POPC   O2220400   3.004   3.787   2.302 -1.0667 -0.1707 -0.3364
  153POPC   C2220401   2.938   3.677   2.509  0.4937  0.0572 -0.3877
  153POPC   H2R20402   3.028   3.614   2.489 -0.8530 -2.3140  0.4881
  153POPC   H2S20403   2.851   3.617   2.475  1.2267 -1.3511  0.0920
  153POPC    C320404   2.915   4.153   2.459 -0.1216 -0.0068  0.3068
  153POPC    HX20405   2.807   4.177   2.456  0.1845  1.3738 -0.7819
  153POPC    HY20406   2.960   4.241   2.408  2.3123 -0.8218  0.9021
  153POPC   O3120407   2.964   4.137   2.589  0.2887 -0.2100  0.2144
  153POPC   C3120408   2.883   4.087   2.683  0.1949 -0.0810  0.7088
  153POPC   O3220409   2.763   4.064   2.667 -0.2189 -0.5275 -0.8901
  153POPC   C3220410   2.954   4.060   2.809 -0.6646 -0.2653 -0.0983
  153POPC   H2X20411   3.013   4.145   2.852 -0.4126 -1.5381  2.2165
  153POPC   H2Y20412   3.034   3.985   2.792 -1.1974 -0.3102 -2.8215
  153POPC   C2320413   2.913   3.711   2.656 -0.1967 -0.5609  0.4395
  153POPC   H3R20414   2.814   3.760   2.658 -1.8825 -3.6932 -0.2763
  153POPC   H3S20415   2.984   3.792   2.684  0.3600 -0.3780 -1.4068
  153POPC   C2420416   2.900   3.591   2.751 -0.1398  0.2259  0.0010
  153POPC   H4R20417   2.826   3.526   2.699  0.6493  0.2430 -1.1788
  153POPC   H4S20418   2.859   3.618   2.851 -1.6827 -2.3619  0.1655
  153POPC   C2520419   3.033   3.517   2.765  0.4853  0.1516 -0.2958
  153POPC   H5R20420   3.103   3.595   2.802  0.2711 -0.2122  0.9230
  153POPC   H5S20421   3.049   3.478   2.663  0.0977  0.1317 -0.3497
  153POPC   C2620422   3.028   3.402   2.875  0.1739 -0.3509  0.3764
  153POPC   H6R20423   3.109   3.328   2.856  0.4776  0.2930 -0.9033
  153POPC   H6S20424   2.929   3.356   2.852  1.7326 -2.4577 -2.9780
  153POPC   C2720425   3.042   3.456   3.017 -0.1565 -0.5044 -0.2228
  153POPC   H7R20426   3.095   3.552   3.005 -2.0362  0.3271 -2.9599
  153POPC   H7S20427   3.105   3.377   3.063 -0.9560 -2.3766 -2.1423
  153POPC   C2820428   2.924   3.463   3.117 -0.0671  0.2280 -0.3586
  153POPC   H8R20429   2.872   3.552   3.077 -0.4632  0.1323 -0.0654
  153POPC   H8S20430   2.965   3.484   3.218  0.0331 -3.6223  0.5449
  153POPC   C2920431   2.821   3.354   3.126  0.3442  0.3713  0.0787
  153POPC   H9120432   2.740   3.375   3.055  0.9219  0.1875 -0.6424
  153POPC  C21020433   2.820   3.251   3.210 -0.4827  1.1478  0.0532
  153POPC  H10120434   2.738   3.179   3.207  0.5263 -0.0826  0.7987
  153POPC  C21120435   2.917   3.218   3.322 -0.1110 -0.0874 -0.0546
  153POPC  H11R20436   3.001   3.290   3.330  0.5558 -0.8250 -0.3643
  153POPC  H11S20437   2.959   3.117   3.308 -0.4909 -0.3250  0.4616
  153POPC  C21220438   2.848   3.217   3.459 -0.3332  0.7161 -0.3455
  153POPC  H12R20439   2.796   3.119   3.467 -1.3474  1.0751 -2.0019
  153POPC  H12S20440   2.767   3.293   3.468 -0.2375  0.6800  0.9333
  153POPC  C21320441   2.954   3.238   3.568  0.1117  0.1176 -0.1422
  153POPC  H13R20442   3.008   3.333   3.552 -0.4732  0.6836  1.1491
  153POPC  H13S20443   3.032   3.161   3.588  0.7480  0.6510 -0.5361
  153POPC  C21420444   2.881   3.251   3.707 -0.2530 -0.5472 -0.4270
  153POPC  H14R20445   2.827   3.347   3.724 -1.3115 -1.1404 -0.4054
  153POPC  H14S20446   2.963   3.250   3.782  1.4610 -0.6484 -2.2117
  153POPC  C21520447   2.775   3.145   3.744  0.4280 -0.1191 -0.4552
  153POPC  H15R20448   2.688   3.167   3.678  0.1939 -1.1587 -0.5028
  153POPC  H15S20449   2.725   3.175   3.839 -0.5143  0.1749 -1.0249
  153POPC  C21620450   2.826   3.004   3.730 -0.0784  0.0681 -0.4061
  153POPC  H16R20451   2.868   2.987   3.629 -2.5490  1.4297 -1.7580
  153POPC  H16S20452   2.748   2.926   3.749  0.3945 -0.4998 -0.7872
  153POPC  C21720453   2.942   2.973   3.828 -0.2621 -0.2125  0.3678
  153POPC  H17R20454   2.907   2.980   3.933 -1.9977  0.6587 -0.2294
  153POPC  H17S20455   3.025   3.047   3.817  0.5489 -0.9044  1.6619
  153POPC  C21820456   3.004   2.830   3.812  0.0407  0.0100 -0.1535
  153POPC  H18R20457   3.049   2.813   3.712 -0.6063  1.4291 -0.7049
  153POPC  H18S20458   2.927   2.751   3.828 -0.0868  0.0816 -0.4117
  153POPC  H18T20459   3.088   2.804   3.881  0.3789 -2.5484 -1.3880
  153POPC   C3320460   2.857   4.001   2.906  0.0378 -0.0290 -0.8635
  153POPC   H3X20461   2.797   3.925   2.853  1.4337 -0.3244 -2.1049
  153POPC   H3Y20462   2.787   4.081   2.938 -0.3083 -0.7009  0.0636
  153POPC   C3420463   2.935   3.937   3.028  0.1952 -0.8027  0.0646
  153POPC   H4X20464   2.999   4.019   3.069  2.2542 -1.8577 -0.8811
  153POPC   H4Y20465   3.014   3.865   2.998  0.2409 -0.3995 -0.8178
  153POPC   C3520466   2.846   3.879   3.131  0.5659 -0.8850 -0.2231
  153POPC   H5X20467   2.775   3.806   3.086 -0.3672 -0.1636  0.0280
  153POPC   H5Y20468   2.777   3.954   3.175  0.7723 -1.5308  1.2506
  153POPC   C3620469   2.919   3.807   3.241 -0.3387  0.0542 -0.6551
  153POPC   H6X20470   2.989   3.871   3.299  0.5518 -1.8783  0.5301
  153POPC   H6Y20471   2.987   3.738   3.186 -0.8409 -1.7669  0.8827
  153POPC   C3720472   2.830   3.735   3.344  0.4446  0.3747  0.1641
  153POPC   H7X20473   2.757   3.675   3.286  1.2658  0.0703 -0.5775
  153POPC   H7Y20474   2.773   3.815   3.396  0.4628  0.3882  0.1635
  153POPC   C3820475   2.893   3.662   3.459 -0.4973 -0.6552  0.4891
  153POPC   H8X20476   2.966   3.730   3.509  1.0166 -1.1333 -0.9850
  153POPC   H8Y20477   2.947   3.574   3.420  0.8946  1.3666 -2.5811
  153POPC   C3920478   2.807   3.605   3.570  0.4199  0.0874 -0.0950
  153POPC   H9X20479   2.871   3.571   3.655  0.3666  0.1996 -0.0101
  153POPC   H9Y20480   2.744   3.522   3.531  0.2733  0.8472 -1.5264
  153POPC  C31020481   2.699   3.699   3.619 -0.3906 -0.8403  0.6009
  153POPC  H10X20482   2.639   3.740   3.536  1.3915  1.0534  0.1579
  153POPC  H10Y20483   2.751   3.787   3.663 -0.5990 -1.2326  1.6593
  153POPC  C31120484   2.622   3.634   3.727  0.2910 -0.4371  0.3818
  153POPC  H11X20485   2.688   3.594   3.807 -0.1152  1.6881  1.8473
  153POPC  H11Y20486   2.561   3.548   3.692  2.2629 -2.0468  0.7117
  153POPC  C31220487   2.536   3.733   3.803 -0.5448  0.1968 -0.1180
  153POPC  H12X20488   2.605   3.787   3.871  0.0675  0.2122 -0.7390
  153POPC  H12Y20489   2.472   3.665   3.863  0.4115 -2.7277 -2.1844
  153POPC  C31320490   2.446   3.826   3.720  0.0037  0.6553  0.2758
  153POPC  H13X20491   2.373   3.769   3.660  0.3405  1.5970 -1.0681
  153POPC  H13Y20492   2.516   3.880   3.652 -0.1485  1.5346  0.8064
  153POPC  C31420493   2.362   3.916   3.818 -0.2418  0.4620  0.5813
  153POPC  H14X20494   2.430   4.000   3.845  0.1640 -0.5381  2.9382
  153POPC  H14Y20495   2.325   3.852   3.901 -1.0425 -0.7979 -0.7084
  153POPC  C31520496   2.240   3.974   3.742  0.0120 -0.3029 -0.0072
  153POPC  H15X20497   2.199   4.064   3.795 -0.3888 -0.2086 -0.4768
  153POPC  H15Y20498   2.156   3.901   3.742 -0.7441  0.4998 -1.7423
  153POPC  C31620499   2.261   4.023   3.596  0.4002  0.9461 -0.4113
  153POPC  H16X20500   2.167   4.073   3.562 -0.5666  0.1757  1.0176
  153POPC  H16Y20501   2.286   3.943   3.524  0.3691  0.6877 -0.1348
  153POPC  H16Z20502   2.341   4.099   3.586  0.1594  0.8976 -4.1135
  154POPC     N20503   5.972   7.891   2.102  0.9533 -0.1991  0.5698
  154POPC   C1220504   5.987   8.017   2.187  0.4556 -1.0003  0.1034
  154POPC  H12A20505   6.093   8.021   2.205  0.6085 -1.3444 -0.6546
  154POPC  H12B20506   5.941   7.999   2.283  0.7358 -0.7074  0.2934
  154POPC   C1320507   5.826   7.842   2.100 -0.5200  0.2501  0.6854
  154POPC  H13A20508   5.830   7.759   2.031 -0.5532  1.7596 -1.2105
  154POPC  H13B20509   5.795   7.824   2.202 -1.7616  0.1111  0.2924
  154POPC  H13C20510   5.756   7.914   2.060 -0.9287  0.1912  1.2810
  154POPC   C1420511   6.021   7.918   1.958 -0.0653 -0.2597  0.1822
  154POPC  H14A20512   6.105   7.985   1.964 -0.2470  0.1337 -1.1853
  154POPC  H14B20513   6.057   7.832   1.904 -0.5181  0.6843 -1.7215
  154POPC  H14C20514   5.948   7.981   1.907 -0.1128 -0.6019 -0.1808
  154POPC   C1520515   6.051   7.779   2.161 -0.0211  0.2211  0.6371
  154POPC  H15A20516   6.024   7.696   2.097  0.0677  0.9072 -0.3243
  154POPC  H15B20517   6.015   7.752   2.258  0.9259  1.3693  1.3407
  154POPC  H15C20518   6.158   7.794   2.154 -0.0043 -0.5886 -3.2367
  154POPC   C1120519   5.932   8.151   2.132  0.6242 -0.1458  0.6141
  154POPC  H11A20520   5.989   8.187   2.044  1.6532  0.4631  1.4906
  154POPC  H11B20521   5.951   8.224   2.214 -0.1982 -0.5394  1.1685
  154POPC     P20522   5.685   8.212   2.189 -0.0195 -0.3852  0.3168
  154POPC   O1320523   5.556   8.166   2.137  0.5008  0.4090  0.6652
  154POPC   O1420524   5.714   8.357   2.188 -0.3643  0.3656 -0.7938
  154POPC   O1220525   5.794   8.148   2.099  0.7179  0.1958  0.4126
  154POPC   O1120526   5.712   8.150   2.326 -0.0136  0.1384 -0.6491
  154POPC    C120527   5.704   8.241   2.433 -0.0869 -0.2409  0.2629
  154POPC    HA20528   5.596   8.254   2.456  0.0937  0.5952  0.6914
  154POPC    HB20529   5.748   8.341   2.411  0.8289 -1.1959 -2.6636
  154POPC    C220530   5.750   8.157   2.556  0.3359 -0.4308  0.6673
  154POPC    HS20531   5.856   8.134   2.531  0.0718 -1.5631  0.5299
  154POPC   O2120532   5.677   8.039   2.561 -0.5161  0.2746 -0.0381
  154POPC   C2120533   5.736   7.940   2.629  0.2563  0.1190 -0.1202
  154POPC   O2220534   5.845   7.942   2.680  0.2237 -0.1385 -0.5434
  154POPC   C2220535   5.642   7.824   2.641  0.9562  0.6762 -0.2440
  154POPC   H2R20536   5.624   7.784   2.539  1.4737 -0.8566  0.2380
  154POPC   H2S20537   5.545   7.844   2.691  1.6111 -0.8377  1.7839
  154POPC    C320538   5.735   8.250   2.677 -0.8674  0.0881  0.2469
  154POPC    HX20539   5.629   8.281   2.674 -0.5972  1.1704  1.1194
  154POPC    HY20540   5.800   8.336   2.651  0.7464 -1.2136 -0.1923
  154POPC   O3120541   5.767   8.198   2.804 -0.0648 -0.7686  0.0932
  154POPC   C3120542   5.897   8.180   2.820 -0.4686  0.6508  0.0072
  154POPC   O3220543   5.982   8.186   2.732  0.4275 -0.7204 -0.0601
  154POPC   C3220544   5.931   8.129   2.961 -0.3469  0.0152  0.1236
  154POPC   H2X20545   5.926   8.018   2.957  0.5285 -0.0557  0.7565
  154POPC   H2Y20546   5.848   8.162   3.027 -0.6746 -3.2670  1.5767
  154POPC   C2320547   5.717   7.703   2.710 -0.2060 -1.2783  0.7040
  154POPC   H3R20548   5.731   7.728   2.818  0.2375 -1.0755  0.6019
  154POPC   H3S20549   5.815   7.695   2.658 -0.2078 -1.3894  0.7183
  154POPC   C2420550   5.627   7.579   2.684 -0.9044 -0.9644 -0.6011
  154POPC   H4R20551   5.596   7.555   2.580 -1.4259  0.1667 -0.7264
  154POPC   H4S20552   5.541   7.594   2.753 -0.8184 -0.9363 -0.5000
  154POPC   C2520553   5.696   7.446   2.723  0.1456 -0.3858 -0.4652
  154POPC   H5R20554   5.803   7.467   2.747 -0.6637  1.0020  2.3814
  154POPC   H5S20555   5.692   7.369   2.643 -0.3840  1.1522 -1.9863
  154POPC   C2620556   5.636   7.385   2.855  0.3987  0.2317  0.0686
  154POPC   H6R20557   5.525   7.384   2.854  0.3598 -2.1481  0.9044
  154POPC   H6S20558   5.667   7.450   2.939 -0.7037 -1.0682  1.5405
  154POPC   C2720559   5.692   7.247   2.886 -0.1431  0.1077 -0.0748
  154POPC   H7R20560   5.800   7.257   2.864 -0.1018  0.6204  0.3636
  154POPC   H7S20561   5.649   7.179   2.808  0.3196  2.4982 -2.5421
  154POPC   C2820562   5.662   7.190   3.027 -0.4825 -0.2161 -0.2950
  154POPC   H8R20563   5.705   7.088   3.036  3.5743  1.3990  0.9690
  154POPC   H8S20564   5.553   7.193   3.048 -0.8350 -0.8571 -1.9076
  154POPC   C2920565   5.733   7.277   3.120 -0.6153 -0.2345  0.1321
  154POPC   H9120566   5.768   7.373   3.081  0.4573 -0.1109  1.3319
  154POPC  C21020567   5.721   7.250   3.256 -0.0132 -0.6933  0.6789
  154POPC  H10120568   5.762   7.317   3.332 -1.3948 -1.3786  2.0734
  154POPC  C21120569   5.657   7.135   3.323  0.0678  0.1585  0.0304
  154POPC  H11R20570   5.616   7.059   3.254  1.3483 -0.1569 -0.4228
  154POPC  H11S20571   5.564   7.166   3.376 -0.2430  2.5237 -1.7323
  154POPC  C21220572   5.761   7.057   3.410 -0.6564  0.2632  0.0898
  154POPC  H12R20573   5.793   7.108   3.503 -0.7108 -1.3208  0.9966
  154POPC  H12S20574   5.853   7.042   3.349 -0.3455 -1.6961  0.9650
  154POPC  C21320575   5.717   6.917   3.455  0.4814 -0.7685  0.5383
  154POPC  H13R20576   5.718   6.858   3.361  1.8076  2.2891 -1.5190
  154POPC  H13S20577   5.615   6.937   3.492  0.2825 -1.0307  0.1456
  154POPC  C21420578   5.807   6.859   3.563  0.1823 -0.0688  0.3787
  154POPC  H14R20579   5.777   6.754   3.582  0.7406 -0.4340 -0.6554
  154POPC  H14S20580   5.794   6.923   3.653  0.4856  1.3956 -0.5686
  154POPC  C21520581   5.956   6.839   3.524  0.0965  0.1601  0.4450
  154POPC  H15R20582   5.994   6.941   3.503  1.1538 -0.3870 -0.3602
  154POPC  H15S20583   5.967   6.789   3.426  1.6472  0.9582  0.1836
  154POPC  C21620584   6.046   6.773   3.631  0.5273 -0.3815 -0.6347
  154POPC  H16R20585   6.136   6.732   3.580 -0.4822 -1.7313 -1.3783
  154POPC  H16S20586   5.991   6.683   3.664 -0.0555  0.4590  0.7490
  154POPC  C21720587   6.090   6.856   3.741 -0.7659 -0.0653 -0.2830
  154POPC  H17R20588   6.167   6.804   3.803  1.4193  2.3436 -0.8222
  154POPC  H17S20589   6.002   6.870   3.808 -0.3210  0.9150  0.1195
  154POPC  C21820590   6.157   6.993   3.714  0.0227 -0.2460  0.2308
  154POPC  H18R20591   6.217   7.034   3.799 -0.5619  0.2583  0.4091
  154POPC  H18S20592   6.080   7.069   3.689 -0.4899 -0.3706  1.3817
  154POPC  H18T20593   6.224   6.990   3.625  1.5990 -0.6655  1.3807
  154POPC   C3320594   6.065   8.168   3.021 -0.0750  0.1158 -0.3142
  154POPC   H3X20595   6.075   8.275   3.048  4.3058 -0.5526  1.5084
  154POPC   H3Y20596   6.156   8.144   2.961 -0.8100 -1.2555 -0.9357
  154POPC   C3420597   6.099   8.090   3.150 -0.5111 -0.3285  1.2163
  154POPC   H4X20598   6.205   8.113   3.171  0.4082 -0.7647 -2.3633
  154POPC   H4Y20599   6.103   7.980   3.137  2.0150 -0.4388  2.3886
  154POPC   C3520600   6.011   8.111   3.279  0.1799 -0.3783  0.0219
  154POPC   H5X20601   5.922   8.044   3.275  0.3610 -0.6302  0.1152
  154POPC   H5Y20602   5.967   8.213   3.281  1.0031 -0.0331  1.3155
  154POPC   C3620603   6.080   8.098   3.408  0.0324  0.2589 -0.0394
  154POPC   H6X20604   6.159   8.175   3.421 -0.8352  0.8519  2.0900
  154POPC   H6Y20605   6.131   7.999   3.409 -0.0468  0.1705 -1.6193
  154POPC   C3720606   5.989   8.096   3.534 -0.4933 -0.1541  0.8679
  154POPC   H7X20607   5.935   8.000   3.536 -0.2223 -0.2908  2.8125
  154POPC   H7Y20608   5.917   8.181   3.530 -0.2138  0.2982  3.6747
  154POPC   C3820609   6.073   8.113   3.663  0.2073  0.9687 -0.5369
  154POPC   H8X20610   6.116   8.216   3.662  1.9042  0.2979 -2.0997
  154POPC   H8Y20611   6.160   8.045   3.656  1.1474  2.2293 -1.7488
  154POPC   C3920612   5.995   8.092   3.794  0.9707 -0.1723  0.3988
  154POPC   H9X20613   5.936   7.998   3.804 -0.4891  0.8958  2.6945
  154POPC   H9Y20614   5.920   8.172   3.812  2.3287  0.9578  1.2828
  154POPC  C31020615   6.081   8.096   3.915  0.1234  0.4165  0.0154
  154POPC  H10X20616   6.117   8.198   3.941  2.4193 -0.2667 -0.2685
  154POPC  H10Y20617   6.177   8.040   3.907 -1.4860 -2.3254 -2.4521
  154POPC  C31120618   6.016   8.034   4.040  0.3718 -0.2713  0.4566
  154POPC  H11X20619   5.974   7.935   4.015 -1.1668  1.0820 -3.0420
  154POPC  H11Y20620   5.920   8.084   4.063  0.3868 -0.5310  1.0913
  154POPC  C31220621   6.106   8.048   4.165 -0.4320 -1.0490 -0.4709
  154POPC  H12X20622   6.114   8.159   4.177  0.3014 -1.1194 -0.2703
  154POPC  H12Y20623   6.211   8.020   4.142  0.8414  0.4949  2.7544
  154POPC  C31320624   6.062   7.975   4.295  0.1796  0.5879 -0.3521
  154POPC  H13X20625   6.074   7.868   4.268  0.5874  0.8580 -1.2559
  154POPC  H13Y20626   5.957   7.995   4.326 -0.6148 -2.4292 -0.8490
  154POPC  C31420627   6.146   8.007   4.414  0.1447 -0.3844 -0.5614
  154POPC  H14X20628   6.152   8.118   4.418  0.0302 -0.3787  2.6094
  154POPC  H14Y20629   6.247   7.964   4.395  0.0490 -0.6519 -0.4705
  154POPC  C31520630   6.086   7.960   4.544 -0.1848  0.0407 -0.3243
  154POPC  H15X20631   6.073   7.850   4.536  2.8985 -0.5669  1.3533
  154POPC  H15Y20632   5.990   8.016   4.543  0.5121  1.2693 -0.9053
  154POPC  C31620633   6.169   7.977   4.678 -0.6022  0.0865 -0.5982
  154POPC  H16X20634   6.092   7.991   4.757 -1.6561 -0.9431 -1.4063
  154POPC  H16Y20635   6.230   8.070   4.665 -2.2663  1.4211  0.7457
  154POPC  H16Z20636   6.237   7.894   4.706  1.5271  2.4709  1.9563
  155POPC     N20637   6.519   0.367   2.489 -0.0175 -0.4600  0.5344
  155POPC   C1220638   6.676   0.347   2.493  0.4339 -0.2849  1.1199
  155POPC  H12A20639   6.708   0.322   2.593 -0.4777 -1.8006  1.0767
  155POPC  H12B20640   6.715   0.443   2.465  0.5456 -0.2300  1.4683
  155POPC   C1320641   6.475   0.393   2.348  0.1532 -0.4297 -0.4666
  155POPC  H13A20642   6.523   0.321   2.283  1.8624 -2.2817  2.5977
  155POPC  H13B20643   6.368   0.391   2.334  0.2158 -3.5813 -1.3030
  155POPC  H13C20644   6.517   0.487   2.317  3.0982 -1.3455  0.4321
  155POPC   C1420645   6.469   0.237   2.529  0.4567  0.0385 -0.2659
  155POPC  H14A20646   6.518   0.152   2.485 -0.5930 -0.9613  0.4662
  155POPC  H14B20647   6.481   0.217   2.635  0.1171  1.7972  0.1348
  155POPC  H14C20648   6.363   0.233   2.511  0.3689 -0.5448  0.3365
  155POPC   C1520649   6.476   0.478   2.577 -0.0699 -0.0020 -0.2247
  155POPC  H15A20650   6.508   0.464   2.679  0.4298  0.2433 -0.3438
  155POPC  H15B20651   6.371   0.502   2.569  0.1224  0.8118 -0.4250
  155POPC  H15C20652   6.522   0.570   2.544 -1.1742  1.2443  1.4985
  155POPC   C1120653   6.730   0.240   2.390 -0.2419 -0.2912 -0.6845
  155POPC  H11A20654   6.839   0.236   2.410 -0.2954 -1.8620 -0.5665
  155POPC  H11B20655   6.715   0.275   2.285  0.0205  2.0755  0.0090
  155POPC     P20656   6.792  -0.006   2.358  0.1251  0.4559  0.4383
  155POPC   O1320657   6.866   0.046   2.245 -0.0945 -0.7465  0.4135
  155POPC   O1420658   6.720  -0.134   2.332 -0.3598 -0.3528  0.2464
  155POPC   O1220659   6.692   0.102   2.418  0.8475 -0.8235 -0.1724
  155POPC   O1120660   6.891  -0.043   2.475  0.6877 -0.3470 -0.0933
  155POPC    C120661   6.841  -0.080   2.600  0.0441  0.3762 -0.4503
  155POPC    HA20662   6.914  -0.147   2.650  0.5776  0.3107 -1.3171
  155POPC    HB20663   6.747  -0.139   2.586 -1.9799  2.7726  1.8224
  155POPC    C220664   6.798   0.033   2.696 -0.4119  0.3629 -0.2768
  155POPC    HS20665   6.720   0.090   2.642 -0.6471 -1.4074 -1.8921
  155POPC   O2120666   6.921   0.107   2.734 -0.8846 -0.3734 -0.1834
  155POPC   C2120667   6.901   0.230   2.768 -0.7265 -0.2761  0.0849
  155POPC   O2220668   6.792   0.287   2.780 -0.2539  0.5634  0.1798
  155POPC   C2220669   7.033   0.298   2.817  0.1584  0.5393  0.8807
  155POPC   H2R20670   7.043   0.389   2.753 -2.0505 -1.1776 -2.1844
  155POPC   H2S20671   7.119   0.234   2.788 -0.4207  0.0256  0.2688
  155POPC    C320672   6.742  -0.022   2.827 -0.1977 -0.4930 -0.3907
  155POPC    HX20673   6.720   0.058   2.901  0.5943  0.9775 -1.6842
  155POPC    HY20674   6.828  -0.060   2.886 -1.0846  0.0396  1.2994
  155POPC   O3120675   6.636  -0.122   2.823 -0.2627 -0.5462  0.0877
  155POPC   C3120676   6.518  -0.078   2.810 -0.2999 -0.2039  0.1231
  155POPC   O3220677   6.482   0.038   2.787 -0.0224 -0.2767 -0.0030
  155POPC   C3220678   6.422  -0.201   2.818  0.5031  0.2846 -0.3408
  155POPC   H2X20679   6.394  -0.204   2.925 -0.4608  0.3705 -0.5772
  155POPC   H2Y20680   6.482  -0.292   2.797 -1.9017 -2.1523  2.5511
  155POPC   C2320681   7.021   0.327   2.965 -0.5968  0.5845 -0.1782
  155POPC   H3R20682   6.995   0.227   3.004  0.0475 -1.3461 -4.2042
  155POPC   H3S20683   6.939   0.401   2.980  0.4667  1.6316  0.6700
  155POPC   C2420684   7.150   0.384   3.024 -0.4986  0.7643 -0.1905
  155POPC   H4R20685   7.224   0.304   3.004 -1.3896 -0.9657  2.7915
  155POPC   H4S20686   7.156   0.385   3.135  1.3065 -1.3409 -0.1901
  155POPC   C2520687   7.196   0.519   2.970  0.2984 -0.6152 -0.4404
  155POPC   H5R20688   7.200   0.511   2.860 -1.1313 -0.2952 -0.5417
  155POPC   H5S20689   7.292   0.539   3.022 -0.6928  1.3912  0.7576
  155POPC   C2620690   7.103   0.641   3.001 -0.1173 -0.1506  0.5446
  155POPC   H6R20691   7.003   0.637   2.953 -0.8055 -0.0907  1.9376
  155POPC   H6S20692   7.157   0.733   2.969 -0.2135  0.0892  1.0760
  155POPC   C2720693   7.061   0.642   3.151  0.0836 -0.4045  0.3167
  155POPC   H7R20694   7.150   0.688   3.199 -1.6208  2.2344  1.1868
  155POPC   H7S20695   7.044   0.543   3.198 -0.6601 -1.0863 -1.3185
  155POPC   C2820696   6.936   0.717   3.197 -0.1981  0.0792 -0.1118
  155POPC   H8R20697   6.957   0.816   3.153  1.4757 -0.6303 -0.9996
  155POPC   H8S20698   6.929   0.720   3.308 -2.9223  0.2712 -0.2258
  155POPC   C2920699   6.815   0.643   3.150 -0.1049 -0.0225 -0.0793
  155POPC   H9120700   6.821   0.609   3.045 -0.4960 -1.7713  0.4307
  155POPC  C21020701   6.716   0.602   3.232 -0.3078 -0.3295  0.3948
  155POPC  H10120702   6.628   0.558   3.183  0.4377 -0.8437 -0.5129
  155POPC  C21120703   6.689   0.622   3.378  0.3227 -0.1734  0.7039
  155POPC  H11R20704   6.579   0.631   3.388 -0.0056  2.5665 -3.1642
  155POPC  H11S20705   6.736   0.716   3.412  0.0783  1.1178 -2.1981
  155POPC  C21220706   6.736   0.509   3.466  0.3101  0.1018  0.2259
  155POPC  H12R20707   6.847   0.501   3.457  0.2955 -0.3332  0.3689
  155POPC  H12S20708   6.689   0.413   3.434  0.2844  0.4188 -0.7000
  155POPC  C21320709   6.698   0.546   3.617 -0.7082 -0.4334  0.0917
  155POPC  H13R20710   6.589   0.525   3.629 -0.2899 -4.0955 -1.0732
  155POPC  H13S20711   6.723   0.653   3.632  1.0392 -0.7043 -0.7392
  155POPC  C21420712   6.754   0.458   3.736  0.2562 -0.6317 -0.0278
  155POPC  H14R20713   6.864   0.475   3.738  0.1903 -0.1478 -0.5539
  155POPC  H14S20714   6.743   0.347   3.732 -0.0914 -0.5640 -1.3365
  155POPC  C21520715   6.696   0.503   3.870  0.0376 -0.6454 -0.1246
  155POPC  H15R20716   6.765   0.467   3.950  0.4940  0.1567 -0.1439
  155POPC  H15S20717   6.596   0.455   3.872 -0.6669  0.6648 -1.6558
  155POPC  C21620718   6.693   0.653   3.888  0.2340  0.4913  0.3743
  155POPC  H16R20719   6.602   0.693   3.838  0.1104  0.5244  0.6232
  155POPC  H16S20720   6.784   0.693   3.837 -0.5252 -0.9547 -2.3225
  155POPC  C21720721   6.679   0.713   4.030  0.0811 -0.0857  0.1370
  155POPC  H17R20722   6.773   0.693   4.085  1.0137 -1.2813 -1.7784
  155POPC  H17S20723   6.596   0.667   4.087  1.6114 -0.4594  2.1803
  155POPC  C21820724   6.652   0.860   4.021  0.5561  0.2995  0.0944
  155POPC  H18R20725   6.554   0.886   3.976 -0.5016 -2.1735  0.8174
  155POPC  H18S20726   6.733   0.917   3.970  2.1740  1.0295  3.2048
  155POPC  H18T20727   6.658   0.905   4.123  0.3986  0.5358  0.0001
  155POPC   C3320728   6.287  -0.204   2.735  0.6087 -0.4639  0.2847
  155POPC   H3X20729   6.318  -0.254   2.641  1.5161 -1.9474  1.3319
  155POPC   H3Y20730   6.258  -0.098   2.721  0.3560 -0.4145  1.1488
  155POPC   C3420731   6.171  -0.269   2.805  0.0619  0.8668 -0.0886
  155POPC   H4X20732   6.158  -0.247   2.913  0.6933 -0.9452  0.3927
  155POPC   H4Y20733   6.078  -0.228   2.760  0.4820  2.7937  0.6892
  155POPC   C3520734   6.187  -0.421   2.777  0.4922  0.5836  0.2725
  155POPC   H5X20735   6.292  -0.456   2.793 -0.1018 -1.7303 -0.4963
  155POPC   H5Y20736   6.169  -0.454   2.673 -0.7999 -3.0029  1.4883
  155POPC   C3620737   6.091  -0.498   2.862  0.0793  0.3298 -0.1541
  155POPC   H6X20738   6.093  -0.602   2.825  0.9138  0.5667 -0.8060
  155POPC   H6Y20739   5.986  -0.468   2.845  0.7592  0.5894 -5.5617
  155POPC   C3720740   6.115  -0.506   3.011  0.2449 -0.9003  0.2440
  155POPC   H7X20741   6.115  -0.408   3.064 -0.3679 -1.3582  1.1122
  155POPC   H7Y20742   6.214  -0.549   3.033 -0.2130 -2.7630 -1.1131
  155POPC   C3820743   6.013  -0.603   3.075 -0.1865 -0.4578 -0.3086
  155POPC   H8X20744   6.055  -0.700   3.041  2.2644  0.4605 -0.1277
  155POPC   H8Y20745   5.910  -0.592   3.036 -0.7385 -0.8442  0.9706
  155POPC   C3920746   6.022  -0.607   3.228  0.0560 -0.2466 -0.9191
  155POPC   H9X20747   6.127  -0.621   3.260  0.9827  1.6166 -2.8632
  155POPC   H9Y20748   5.977  -0.704   3.257  0.9501 -0.2280  0.6435
  155POPC  C31020749   5.952  -0.487   3.294 -0.3622  0.1607 -0.3175
  155POPC  H10X20750   5.855  -0.477   3.242 -0.5969  0.9731  0.2412
  155POPC  H10Y20751   6.010  -0.395   3.269  1.0983 -0.8535 -0.7908
  155POPC  C31120752   5.940  -0.493   3.451 -0.3311  0.0593  0.3372
  155POPC  H11X20753   5.845  -0.544   3.476 -0.9580  0.1185 -1.7624
  155POPC  H11Y20754   5.926  -0.390   3.491  2.9308  0.3750  1.0058
  155POPC  C31220755   6.052  -0.566   3.528  0.1840  0.8503  0.5218
  155POPC  H12X20756   6.153  -0.545   3.488  0.2458 -1.1806 -0.5329
  155POPC  H12Y20757   6.033  -0.676   3.524 -1.8677  1.0886  1.7719
  155POPC  C31320758   6.052  -0.526   3.673  0.8384 -0.5364 -0.1385
  155POPC  H13X20759   5.950  -0.544   3.714  0.3382 -1.1069 -1.5590
  155POPC  H13Y20760   6.071  -0.417   3.680 -1.7407 -0.0267 -0.0153
  155POPC  C31420761   6.148  -0.588   3.768 -0.0975 -0.8060 -0.1343
  155POPC  H14X20762   6.251  -0.579   3.726 -0.2211  1.2473 -0.0960
  155POPC  H14Y20763   6.134  -0.698   3.765  0.0693 -0.8127 -1.8006
  155POPC  C31520764   6.134  -0.532   3.904  0.4593  0.2804 -0.0889
  155POPC  H15X20765   6.040  -0.565   3.953 -0.0360  1.5641 -0.1431
  155POPC  H15Y20766   6.142  -0.422   3.893 -0.2938  1.3064  5.9332
  155POPC  C31620767   6.246  -0.580   4.004  0.7284 -0.0958 -0.5458
  155POPC  H16X20768   6.342  -0.584   3.948 -0.4819  1.9212 -2.9221
  155POPC  H16Y20769   6.231  -0.683   4.044 -2.1643 -0.5852 -2.5901
  155POPC  H16Z20770   6.261  -0.503   4.083 -1.1169  0.4244 -0.6666
  156POPC     N20771   0.929   2.292   1.568  0.2600 -0.3119  1.0890
  156POPC   C1220772   0.992   2.183   1.654 -0.5602  0.4311 -0.0156
  156POPC  H12A20773   1.097   2.179   1.628 -0.8711 -0.5290 -1.2107
  156POPC  H12B20774   0.946   2.095   1.613 -1.1951  1.7655 -2.3721
  156POPC   C1320775   0.930   2.252   1.422 -0.0938  0.4029 -0.3255
  156POPC  H13A20776   0.874   2.162   1.400  1.1849  0.0402 -2.3712
  156POPC  H13B20777   0.881   2.333   1.370  1.1271  2.0085  0.9067
  156POPC  H13C20778   1.024   2.223   1.378 -0.8570 -1.7549 -0.6464
  156POPC   C1420779   0.792   2.321   1.615 -0.2099  0.0074 -0.6125
  156POPC  H14A20780   0.731   2.233   1.604 -0.3676 -0.7232  4.0010
  156POPC  H14B20781   0.790   2.324   1.723  4.3523 -1.0257 -0.3041
  156POPC  H14C20782   0.735   2.399   1.566 -1.2401 -1.2881 -1.5560
  156POPC   C1520783   1.015   2.420   1.579  0.1530  0.7450 -0.1537
  156POPC  H15A20784   0.971   2.506   1.530 -0.6680  0.4422  0.0392
  156POPC  H15B20785   1.116   2.401   1.546  1.4539  1.9534  2.8369
  156POPC  H15C20786   1.018   2.445   1.684 -1.8123  1.9160 -0.3294
  156POPC   C1120787   0.981   2.194   1.809  0.1984  0.4977 -0.7553
  156POPC  H11A20788   1.037   2.109   1.853  0.8593  1.0684 -0.4566
  156POPC  H11B20789   0.874   2.180   1.832 -0.1620  0.3721 -2.4188
  156POPC     P20790   1.169   2.328   1.924  0.1390  0.8729  0.3796
  156POPC   O1320791   1.194   2.460   1.982  0.5663 -0.0524  0.0238
  156POPC   O1420792   1.274   2.289   1.825 -0.3417 -0.1114 -0.2378
  156POPC   O1220793   1.028   2.320   1.858  0.4923 -0.3637 -0.4739
  156POPC   O1120794   1.142   2.221   2.039 -0.4048  0.0034 -0.0953
  156POPC    C120795   1.055   2.249   2.154 -0.8317 -0.0894 -0.3549
  156POPC    HA20796   0.950   2.229   2.123 -0.6530  0.2767 -1.2135
  156POPC    HB20797   1.062   2.354   2.193 -0.9219 -0.3322  0.3330
  156POPC    C220798   1.097   2.161   2.276 -0.2195  0.3672 -0.3617
  156POPC    HS20799   1.066   2.209   2.371 -0.1077  1.1602 -0.7163
  156POPC   O2120800   1.243   2.139   2.280 -0.6310  0.1254 -0.1921
  156POPC   C2120801   1.316   2.242   2.277 -0.5498  0.7256  0.1177
  156POPC   O2220802   1.291   2.352   2.312  0.4221 -0.1941  0.0500
  156POPC   C2220803   1.450   2.206   2.214 -0.1751  0.0509  0.8975
  156POPC   H2R20804   1.440   2.203   2.104  0.1798  1.8090  0.7851
  156POPC   H2S20805   1.477   2.109   2.262  0.5133  0.5192  1.4681
  156POPC    C320806   1.027   2.026   2.270  0.2639 -0.4830 -0.5570
  156POPC    HX20807   1.097   1.968   2.205  2.5786  1.7173 -0.1693
  156POPC    HY20808   0.925   2.037   2.228  0.2613 -1.4642 -0.8326
  156POPC   O3120809   1.023   1.961   2.395  0.1344  0.0567  0.0836
  156POPC   C3120810   0.920   1.993   2.473  0.3135 -0.3638  0.6633
  156POPC   O3220811   0.822   2.059   2.450  0.2332  0.2685  0.3234
  156POPC   C3220812   0.933   1.915   2.600  0.0614 -0.5836 -0.5142
  156POPC   H2X20813   1.035   1.934   2.640 -0.1411 -1.2508  0.3491
  156POPC   H2Y20814   0.913   1.807   2.584  0.1582 -0.6710 -0.0554
  156POPC   C2320815   1.552   2.322   2.241  0.6568  0.4954  0.5168
  156POPC   H3R20816   1.526   2.409   2.177 -0.3058 -0.6809 -0.7489
  156POPC   H3S20817   1.645   2.278   2.198 -2.1491 -3.2126 -2.4721
  156POPC   C2420818   1.581   2.356   2.387 -0.1438  0.2554 -0.3445
  156POPC   H4R20819   1.493   2.411   2.427 -0.1298 -0.2714  0.4173
  156POPC   H4S20820   1.671   2.420   2.387 -0.1746  0.3125  0.6947
  156POPC   C2520821   1.589   2.234   2.482  0.1997 -0.7898 -0.5238
  156POPC   H5R20822   1.660   2.157   2.446 -0.5239 -0.9003 -1.7456
  156POPC   H5S20823   1.492   2.181   2.499 -0.8290  1.1039 -0.2619
  156POPC   C2620824   1.634   2.289   2.623 -0.4097 -0.7659 -0.3241
  156POPC   H6R20825   1.628   2.206   2.696  0.2478  0.5087  1.2331
  156POPC   H6S20826   1.567   2.373   2.653 -0.3879 -1.2517  1.1704
  156POPC   C2720827   1.784   2.318   2.624 -0.8166 -1.1058 -0.3466
  156POPC   H7R20828   1.783   2.418   2.576  0.4951 -2.0669 -2.5503
  156POPC   H7S20829   1.849   2.251   2.563  1.6485  1.4043 -0.7069
  156POPC   C2820830   1.842   2.318   2.774 -0.0268  0.3808 -0.9744
  156POPC   H8R20831   1.769   2.375   2.835  0.2096 -0.6895  0.3771
  156POPC   H8S20832   1.931   2.382   2.758  0.9911 -0.8367 -0.4076
  156POPC   C2920833   1.878   2.186   2.842  0.3161 -0.4595  0.2176
  156POPC   H9120834   1.788   2.122   2.843 -0.8669  1.0933 -0.4154
  156POPC  C21020835   1.994   2.153   2.907  0.5619  0.7610 -0.1062
  156POPC  H10120836   2.003   2.050   2.945  1.7622 -0.1404 -2.6479
  156POPC  C21120837   2.121   2.228   2.912  0.3864  0.5861  0.8407
  156POPC  H11R20838   2.167   2.223   3.013  1.8321  1.6039  0.2744
  156POPC  H11S20839   2.111   2.338   2.896  1.0593  0.2512 -2.4110
  156POPC  C21220840   2.233   2.166   2.824  1.0580 -0.4307 -0.1171
  156POPC  H12R20841   2.205   2.196   2.721 -1.2570 -1.7261  0.0656
  156POPC  H12S20842   2.226   2.056   2.812 -0.9177 -0.1145 -2.9059
  156POPC  C21320843   2.378   2.201   2.857 -0.0890 -0.2726  0.3645
  156POPC  H13R20844   2.397   2.171   2.962  1.8691  0.8058  0.3738
  156POPC  H13S20845   2.390   2.311   2.854 -0.2963 -0.0009  4.4197
  156POPC  C21420846   2.474   2.126   2.758 -0.7964 -0.2404 -0.1136
  156POPC  H14R20847   2.432   2.139   2.656 -0.3662  0.0540 -0.2564
  156POPC  H14S20848   2.485   2.017   2.778  1.9195 -0.6312 -2.9713
  156POPC  C21520849   2.622   2.187   2.752  0.1998  0.2752  0.8931
  156POPC  H15R20850   2.666   2.167   2.852 -0.2233 -0.5749  0.9191
  156POPC  H15S20851   2.606   2.296   2.734  1.3368  0.0098 -2.2888
  156POPC  C21620852   2.706   2.137   2.627  0.1802 -0.2982  0.2085
  156POPC  H16R20853   2.682   2.028   2.630 -2.0717  0.1660  1.5453
  156POPC  H16S20854   2.817   2.142   2.626  0.1999 -0.2882  1.1238
  156POPC  C21720855   2.649   2.194   2.496  0.0634 -0.8194 -0.7208
  156POPC  H17R20856   2.668   2.302   2.515  0.9877 -1.2309  0.9023
  156POPC  H17S20857   2.540   2.174   2.496 -0.4867  1.8069  0.5281
  156POPC  C21820858   2.711   2.135   2.373 -0.5600  0.0422 -0.1279
  156POPC  H18R20859   2.805   2.188   2.347 -0.2529 -0.0518  0.7496
  156POPC  H18S20860   2.648   2.139   2.282  1.1711  1.7274 -1.3120
  156POPC  H18T20861   2.754   2.035   2.397  1.6921  0.6494 -1.3219
  156POPC   C3320862   0.838   1.956   2.718  0.3670 -0.6635  0.6387
  156POPC   H3X20863   0.731   1.947   2.689  0.3566 -2.4578  1.1238
  156POPC   H3Y20864   0.849   2.057   2.761 -0.0180 -0.3983  0.1308
  156POPC   C3420865   0.841   1.853   2.830 -0.1708 -0.0717 -0.3360
  156POPC   H4X20866   0.838   1.751   2.786 -0.0471  1.0154 -3.0699
  156POPC   H4Y20867   0.754   1.859   2.898  0.1743  2.5833 -0.0145
  156POPC   C3520868   0.973   1.860   2.908  0.0870 -0.3078 -0.1302
  156POPC   H5X20869   0.977   1.966   2.941 -2.1841  0.2818 -1.5593
  156POPC   H5Y20870   1.060   1.848   2.841  0.5875 -0.3260  0.5070
  156POPC   C3620871   0.978   1.754   3.024  0.1593  0.7286 -0.1559
  156POPC   H6X20872   0.924   1.669   2.977 -2.4850  1.2882  1.6300
  156POPC   H6Y20873   0.902   1.778   3.101  1.0653 -0.3134  1.0951
  156POPC   C3720874   1.109   1.729   3.089 -0.3693  0.0844 -0.3245
  156POPC   H7X20875   1.190   1.695   3.020  0.9863 -0.0908  1.2950
  156POPC   H7Y20876   1.085   1.650   3.164 -1.5030  0.0410 -0.7133
  156POPC   C3820877   1.159   1.846   3.166 -0.2686 -0.0863 -0.1677
  156POPC   H8X20878   1.180   1.937   3.106  0.8786 -1.3091 -1.7244
  156POPC   H8Y20879   1.260   1.821   3.203  0.9041  2.2074 -1.5600
  156POPC   C3920880   1.085   1.880   3.297  0.6681 -0.3291  0.2946
  156POPC   H9X20881   1.078   1.789   3.360 -1.0194 -0.1369  0.4128
  156POPC   H9Y20882   0.985   1.911   3.262  1.0662 -1.0053 -1.6190
  156POPC  C31020883   1.158   1.993   3.367 -0.2375  0.3386 -0.6663
  156POPC  H10X20884   1.149   2.077   3.295 -0.3810  0.8733 -0.0444
  156POPC  H10Y20885   1.264   1.961   3.375 -0.0249  0.7048 -1.8471
  156POPC  C31120886   1.095   2.039   3.495  0.7601 -0.4065 -0.5216
  156POPC  H11X20887   1.107   1.975   3.584 -2.0333  0.8298  0.8600
  156POPC  H11Y20888   0.986   2.049   3.478  1.0879  1.8614 -1.7164
  156POPC  C31220889   1.135   2.179   3.546 -0.0082 -0.1149  0.5487
  156POPC  H12X20890   1.073   2.195   3.636  0.9500 -0.2464  1.2501
  156POPC  H12Y20891   1.112   2.258   3.471  3.7929 -0.8562 -1.6810
  156POPC  C31320892   1.278   2.207   3.586 -0.8253  0.6162 -0.0654
  156POPC  H13X20893   1.277   2.298   3.649  0.9041  0.3656  0.3814
  156POPC  H13Y20894   1.358   2.236   3.514  0.7884 -1.1099  0.9547
  156POPC  C31420895   1.338   2.089   3.659 -1.4414  1.1500  0.1392
  156POPC  H14X20896   1.336   1.993   3.602 -0.8355  1.4652 -0.4303
  156POPC  H14Y20897   1.286   2.080   3.757  0.6919  0.1516  1.2513
  156POPC  C31520898   1.491   2.104   3.672  1.0624  0.3893 -0.4587
  156POPC  H15X20899   1.509   2.197   3.731 -4.2223  1.7476 -0.4527
  156POPC  H15Y20900   1.523   2.128   3.569 -0.8112  0.5085 -1.0393
  156POPC  C31620901   1.554   1.983   3.746 -0.4905 -0.3296 -0.0823
  156POPC  H16X20902   1.546   1.895   3.679  1.2046  0.6487 -1.6791
  156POPC  H16Y20903   1.499   1.961   3.840 -1.2813  3.8813  0.6404
  156POPC  H16Z20904   1.663   2.003   3.755 -0.4164  0.5759 -2.3316
  157POPC     N20905   7.839   4.201   2.239  0.4728  0.0915 -0.1227
  157POPC   C1220906   7.985   4.154   2.226  0.4306  0.1113 -0.2561
  157POPC  H12A20907   8.005   4.058   2.270  1.1459  0.2462 -0.2654
  157POPC  H12B20908   8.053   4.226   2.271  2.3772 -1.6751 -0.2158
  157POPC   C1320909   7.820   4.335   2.177 -0.0458  1.0555  0.5551
  157POPC  H13A20910   7.717   4.367   2.176 -0.6535 -0.5823 -2.8822
  157POPC  H13B20911   7.890   4.405   2.222  0.1379 -0.0081  2.0094
  157POPC  H13C20912   7.845   4.326   2.073 -2.1844 -2.5497  0.2091
  157POPC   C1420913   7.742   4.103   2.167  0.4197 -0.2529  0.2954
  157POPC  H14A20914   7.737   4.001   2.203 -0.1054 -0.5219 -0.5009
  157POPC  H14B20915   7.643   4.143   2.183 -0.4395 -0.9049 -2.6861
  157POPC  H14C20916   7.760   4.112   2.061 -0.1752  0.6272  0.2565
  157POPC   C1520917   7.795   4.209   2.378  0.4243  0.5405  0.4975
  157POPC  H15A20918   7.854   4.268   2.446 -0.2817  2.5497 -0.5805
  157POPC  H15B20919   7.768   4.111   2.416 -5.1674  1.4293 -0.2711
  157POPC  H15C20920   7.702   4.263   2.382  1.2048  1.8571  1.6326
  157POPC   C1120921   8.037   4.129   2.078  0.2231 -0.2395  1.2023
  157POPC  H11A20922   8.040   4.234   2.042  1.8716 -0.4922  0.5432
  157POPC  H11B20923   7.968   4.066   2.018  1.0148  0.9664 -1.0590
  157POPC     P20924   8.293   4.154   2.125 -0.0346 -0.0331 -0.0121
  157POPC   O1320925   8.310   4.288   2.058  0.4762 -0.5970  0.2618
  157POPC   O1420926   8.409   4.055   2.117 -0.1238  0.0673  0.0581
  157POPC   O1220927   8.164   4.073   2.074  0.4112 -0.1729 -0.2426
  157POPC   O1120928   8.267   4.182   2.272  0.2925  0.0177 -0.4220
  157POPC    C120929   8.290   4.303   2.346  0.4361 -0.5752  0.0046
  157POPC    HA20930   8.194   4.345   2.381 -0.5263 -0.1939 -2.7845
  157POPC    HB20931   8.349   4.381   2.293  1.7582 -0.7824  1.1279
  157POPC    C220932   8.376   4.294   2.482  0.1994  0.0412 -0.1688
  157POPC    HS20933   8.375   4.399   2.519 -1.8687  0.3008 -0.8249
  157POPC   O2120934   8.499   4.232   2.446  0.4695 -0.0790  0.2349
  157POPC   C2120935   8.594   4.311   2.417  0.7382 -0.3265 -0.3549
  157POPC   O2220936   8.607   4.430   2.444  0.1325  0.1490 -0.1218
  157POPC   C2220937   8.695   4.234   2.331 -0.7726  0.1361 -0.1747
  157POPC   H2R20938   8.792   4.288   2.336 -0.2127 -0.5666 -2.4629
  157POPC   H2S20939   8.659   4.255   2.229  0.1150  3.8121  0.1515
  157POPC    C320940   8.302   4.206   2.593  0.5705 -0.1246 -0.2098
  157POPC    HX20941   8.366   4.161   2.671 -1.9052 -1.9081  0.9008
  157POPC    HY20942   8.264   4.122   2.531  0.6955 -1.2462  1.1829
  157POPC   O3120943   8.194   4.275   2.654  0.5710 -0.3545  0.3214
  157POPC   C3120944   8.078   4.206   2.666  0.0501 -0.3461 -0.7798
  157POPC   O3220945   8.070   4.086   2.644 -0.1591 -0.0807 -0.1431
  157POPC   C3220946   7.963   4.299   2.713 -0.2225  0.2003  1.1736
  157POPC   H2X20947   7.925   4.342   2.618  0.9360 -1.0635  0.0992
  157POPC   H2Y20948   8.006   4.380   2.777 -0.7954  2.7261 -1.4222
  157POPC   C2320949   8.697   4.087   2.363 -0.1909  0.3367  0.2467
  157POPC   H3R20950   8.779   4.034   2.310 -1.3529 -3.2481  1.7189
  157POPC   H3S20951   8.601   4.039   2.333  0.7739 -0.3633 -1.9184
  157POPC   C2420952   8.742   4.049   2.508  0.1897 -0.5489 -1.2254
  157POPC   H4R20953   8.795   3.952   2.495  1.8035  0.1037  0.1939
  157POPC   H4S20954   8.657   4.056   2.579 -0.1145  3.3350 -1.7305
  157POPC   C2520955   8.858   4.142   2.553  0.0487  0.4454 -0.2478
  157POPC   H5R20956   8.836   4.251   2.553  1.1706  0.6805  0.2132
  157POPC   H5S20957   8.940   4.131   2.479  2.1796 -1.1728  2.1859
  157POPC   C2620958   8.918   4.101   2.694 -0.4618  0.3927  0.0491
  157POPC   H6R20959   9.014   4.155   2.702 -0.9398  1.3203 -0.3297
  157POPC   H6S20960   8.944   3.993   2.684 -0.6487  0.3508  0.0021
  157POPC   C2720961   8.823   4.132   2.808 -0.0945 -0.5021 -0.3818
  157POPC   H7R20962   8.856   4.054   2.879  0.9454 -1.7765 -2.1588
  157POPC   H7S20963   8.718   4.114   2.776 -1.0370  1.0721  1.6273
  157POPC   C2820964   8.843   4.272   2.866  0.6429 -0.3084  0.1529
  157POPC   H8R20965   8.786   4.341   2.801 -3.2416  0.5230  3.9334
  157POPC   H8S20966   8.949   4.304   2.875 -0.0874  2.1374  0.7715
  157POPC   C2920967   8.773   4.276   2.999 -0.0684  0.2274 -0.0153
  157POPC   H9120968   8.802   4.184   3.052 -0.1149  0.0343 -0.3223
  157POPC  C21020969   8.701   4.384   3.043 -0.2896  0.7894 -0.1503
  157POPC  H10120970   8.660   4.373   3.145  1.5970  2.0732  0.7978
  157POPC  C21120971   8.680   4.513   2.973 -0.4738 -0.4617 -0.5679
  157POPC  H11R20972   8.656   4.507   2.865  0.6296 -0.6669 -0.8170
  157POPC  H11S20973   8.773   4.575   2.974 -1.1763  0.6321  0.4713
  157POPC  C21220974   8.582   4.603   3.037  0.6558 -0.0808  0.9420
  157POPC  H12R20975   8.479   4.561   3.033  0.9991 -0.8930  0.3944
  157POPC  H12S20976   8.579   4.697   2.977 -0.2698 -0.1681  0.8361
  157POPC  C21320977   8.602   4.642   3.187 -0.5607  0.4167  0.0623
  157POPC  H13R20978   8.710   4.652   3.211 -0.0620  2.6737 -2.6260
  157POPC  H13S20979   8.567   4.558   3.252 -0.8994  1.9423  1.9367
  157POPC  C21420980   8.518   4.761   3.229  0.0317  0.2845 -0.6143
  157POPC  H14R20981   8.411   4.738   3.210  0.1426 -3.2328  2.0291
  157POPC  H14S20982   8.549   4.857   3.183 -0.1222  0.1247 -1.0590
  157POPC  C21520983   8.530   4.797   3.376  0.0627  0.7776 -0.0204
  157POPC  H15R20984   8.521   4.703   3.435  0.2858  0.4485 -0.4991
  157POPC  H15S20985   8.447   4.866   3.399  0.2152  0.3872  1.8727
  157POPC  C21620986   8.667   4.860   3.412  0.5988  0.2202  0.7623
  157POPC  H16R20987   8.670   4.958   3.359  0.7549 -0.4739 -0.5436
  157POPC  H16S20988   8.754   4.799   3.380 -0.9612 -2.4939  1.4146
  157POPC  C21720989   8.672   4.899   3.559 -0.1201  0.6653  0.3602
  157POPC  H17R20990   8.763   4.963   3.568 -1.6746  3.1205 -0.3559
  157POPC  H17S20991   8.677   4.801   3.612 -2.8427  0.0091 -0.4805
  157POPC  C21820992   8.560   4.973   3.629 -0.3346  0.3221 -0.5865
  157POPC  H18R20993   8.520   5.062   3.576 -1.8626 -0.8173 -1.4331
  157POPC  H18S20994   8.589   4.998   3.733  0.3495 -3.8111  0.4267
  157POPC  H18T20995   8.474   4.902   3.628  0.4871 -0.7090 -0.6347
  157POPC   C3320996   7.847   4.223   2.775 -0.3782 -0.0312 -0.1595
  157POPC   H3X20997   7.884   4.176   2.869 -0.3487  2.2365  1.0371
  157POPC   H3Y20998   7.824   4.139   2.706 -0.3957  0.0922 -0.3046
  157POPC   C3420999   7.723   4.313   2.793 -0.3271 -0.2908 -0.7364
  157POPC   H4X21000   7.648   4.257   2.852  0.9493 -1.7896 -0.4759
  157POPC   H4Y21001   7.679   4.341   2.695 -0.4676  1.2125 -0.2664
  157POPC   C3521002   7.753   4.444   2.857  0.1497 -0.1020  0.1494
  157POPC   H5X21003   7.660   4.499   2.831 -0.1898 -1.9118 -2.9095
  157POPC   H5Y21004   7.840   4.496   2.812  1.7501 -1.5832  1.3820
  157POPC   C3621005   7.772   4.433   3.011 -0.0137 -0.1489  0.3424
  157POPC   H6X21006   7.872   4.391   3.038  0.2899  0.3702  0.0327
  157POPC   H6Y21007   7.695   4.355   3.031 -1.7328  0.5886 -2.7273
  157POPC   C3721008   7.762   4.569   3.085 -0.2058  0.3735  0.0819
  157POPC   H7X21009   7.657   4.601   3.073 -0.7412 -0.8763  1.1796
  157POPC   H7Y21010   7.825   4.646   3.035  0.7012 -0.8177 -0.6623
  157POPC   C3821011   7.793   4.576   3.234  0.2676 -0.3515 -0.5367
  157POPC   H8X21012   7.900   4.554   3.254  0.1828 -0.0886  0.2407
  157POPC   H8Y21013   7.735   4.505   3.298 -0.0276  1.4908  1.3616
  157POPC   C3921014   7.764   4.718   3.287 -0.1238 -0.5641  0.1867
  157POPC   H9X21015   7.656   4.742   3.280  0.5251  2.2600 -2.0397
  157POPC   H9Y21016   7.821   4.796   3.233 -0.4526  0.9204  1.9217
  157POPC  C31021017   7.797   4.728   3.433 -0.3397  0.2002  0.6172
  157POPC  H10X21018   7.901   4.694   3.452 -0.2537  0.2941  0.3199
  157POPC  H10Y21019   7.735   4.646   3.476 -1.4287  0.5509 -0.2106
  157POPC  C31121020   7.770   4.867   3.508  1.0129  0.0178  0.3135
  157POPC  H11X21021   7.829   4.938   3.447 -0.2412  2.3916  1.6996
  157POPC  H11Y21022   7.816   4.858   3.608  1.5304  0.4899  0.1180
  157POPC  C31221023   7.628   4.915   3.507  0.5244  0.9109  0.6275
  157POPC  H12X21024   7.572   4.836   3.560  0.8019 -0.5213 -1.1215
  157POPC  H12Y21025   7.593   4.926   3.402  3.1169 -1.0950 -0.5469
  157POPC  C31321026   7.614   5.057   3.564 -0.1508 -0.4198  0.1586
  157POPC  H13X21027   7.676   5.121   3.499 -1.6672  2.7050  1.5887
  157POPC  H13Y21028   7.649   5.053   3.670  1.5440 -0.1978 -0.3640
  157POPC  C31421029   7.472   5.115   3.559 -0.3310  0.8765  0.3469
  157POPC  H14X21030   7.433   5.129   3.456 -1.3689 -3.7610 -0.1446
  157POPC  H14Y21031   7.461   5.209   3.617 -1.2043 -0.3512  2.2635
  157POPC  C31521032   7.363   5.023   3.610  0.3493  0.4502  0.2207
  157POPC  H15X21033   7.406   4.970   3.698 -0.2612 -1.5129 -0.6172
  157POPC  H15Y21034   7.357   4.947   3.529 -0.9570  3.4331 -2.7548
  157POPC  C31621035   7.227   5.081   3.650 -0.2246  0.3992 -0.1536
  157POPC  H16X21036   7.251   5.148   3.736  0.5681  0.1598 -0.1811
  157POPC  H16Y21037   7.147   5.008   3.670  0.5227 -0.5505 -0.5527
  157POPC  H16Z21038   7.206   5.144   3.561  1.7793  0.8829 -0.3361
  158POPC     N21039   7.841   4.837   1.525 -0.4259 -0.1403 -0.1777
  158POPC   C1221040   7.887   4.688   1.523  1.2334 -0.0919 -0.0807
  158POPC  H12A21041   7.948   4.660   1.439  0.4735 -2.6055  0.1399
  158POPC  H12B21042   7.794   4.637   1.508 -0.1497  2.0672  0.7157
  158POPC   C1321043   7.746   4.866   1.635  0.3036 -0.5220  0.5022
  158POPC  H13A21044   7.655   4.810   1.618  0.1034  0.0758 -0.4419
  158POPC  H13B21045   7.787   4.835   1.730  1.2657 -0.7143  0.0286
  158POPC  H13C21046   7.710   4.967   1.640 -1.3122 -1.0456  0.2091
  158POPC   C1421047   7.966   4.918   1.533  0.0276 -0.0025  0.3473
  158POPC  H14A21048   8.043   4.902   1.459  1.8084 -1.1699  2.3737
  158POPC  H14B21049   7.949   5.025   1.534  1.5361  0.2594  0.3189
  158POPC  H14C21050   8.006   4.905   1.632 -0.9993 -0.8476  0.6683
  158POPC   C1521051   7.781   4.882   1.391  0.5179 -0.3648  0.4469
  158POPC  H15A21052   7.835   4.867   1.299 -2.2319  1.1740 -1.5783
  158POPC  H15B21053   7.758   4.987   1.398  0.5430 -0.4042  1.1944
  158POPC  H15C21054   7.686   4.830   1.392  0.8105 -0.9049  1.5781
  158POPC   C1121055   7.953   4.635   1.657  0.0288  0.0206 -0.9471
  158POPC  H11A21056   8.057   4.671   1.678 -1.0464  2.5556  0.5253
  158POPC  H11B21057   7.956   4.525   1.643 -0.9819 -0.4526  1.8524
  158POPC     P21058   7.820   4.564   1.876 -0.1523  0.2546 -0.4231
  158POPC   O1321059   7.922   4.467   1.918 -0.0196  0.2307 -0.4929
  158POPC   O1421060   7.693   4.514   1.824  0.1379  0.3647  1.0577
  158POPC   O1221061   7.882   4.667   1.777  0.7885  1.0483  0.2637
  158POPC   O1121062   7.786   4.642   2.001  0.3197 -0.1456 -0.3164
  158POPC    C121063   7.870   4.746   2.059  0.7199  0.1004  0.0397
  158POPC    HA21064   7.812   4.831   2.102 -0.7837 -0.6094 -0.5342
  158POPC    HB21065   7.935   4.800   1.987 -1.2907 -0.0237 -1.9645
  158POPC    C221066   7.947   4.690   2.176 -0.1327 -0.3673  0.2521
  158POPC    HS21067   8.002   4.596   2.151  3.5239  1.1022  2.1043
  158POPC   O2121068   7.846   4.675   2.284 -0.4988 -0.3248  0.4068
  158POPC   C2121069   7.879   4.598   2.386  0.9165 -0.4605  0.2865
  158POPC   O2221070   7.967   4.517   2.393 -0.6210 -0.1769 -0.2492
  158POPC   C2221071   7.781   4.620   2.504  0.0435  0.4065  0.6633
  158POPC   H2R21072   7.824   4.584   2.600  0.9535 -1.6396 -0.4531
  158POPC   H2S21073   7.694   4.553   2.489  1.0400 -0.9881  0.8696
  158POPC    C321074   8.056   4.791   2.223  0.4249  0.6691  0.6062
  158POPC    HX21075   8.011   4.892   2.228 -1.6071 -0.0920 -0.8583
  158POPC    HY21076   8.133   4.794   2.144 -0.0593 -3.3867 -0.2707
  158POPC   O3121077   8.112   4.757   2.348  0.2927 -0.7951  0.5709
  158POPC   C3121078   8.242   4.717   2.350 -0.9047 -0.8074 -0.1506
  158POPC   O3221079   8.307   4.711   2.251  0.5132 -0.1257  0.3669
  158POPC   C3221080   8.294   4.686   2.490  0.6874  0.0630  0.4557
  158POPC   H2X21081   8.347   4.777   2.523 -0.6372  1.9819 -2.3252
  158POPC   H2Y21082   8.367   4.602   2.495 -1.7353 -2.2201 -0.0373
  158POPC   C2321083   7.724   4.764   2.504  0.0897 -0.6237 -0.3967
  158POPC   H3R21084   7.623   4.767   2.549  0.3427  1.1366  0.1302
  158POPC   H3S21085   7.719   4.832   2.417 -1.5729  2.3892  1.8707
  158POPC   C2421086   7.806   4.837   2.610  0.0321 -0.0573 -0.7597
  158POPC   H4R21087   7.904   4.851   2.560 -0.0637 -0.9175 -1.2236
  158POPC   H4S21088   7.823   4.773   2.699  0.0778 -1.8243 -1.9661
  158POPC   C2521089   7.752   4.977   2.643  1.0577 -0.2546 -0.3598
  158POPC   H5R21090   7.702   5.016   2.552 -1.9493  0.7804  1.6031
  158POPC   H5S21091   7.825   5.053   2.678 -1.2258  1.7807  0.2364
  158POPC   C2621092   7.654   4.975   2.759  0.3265  0.7979 -0.5359
  158POPC   H6R21093   7.595   4.881   2.760 -1.6249  1.9715  0.8093
  158POPC   H6S21094   7.575   5.051   2.740 -1.5665 -0.5327  1.5816
  158POPC   C2721095   7.708   4.995   2.900 -0.3514  0.5379 -0.2549
  158POPC   H7R21096   7.804   5.050   2.884 -0.4467  1.1228  1.1016
  158POPC   H7S21097   7.733   4.898   2.948 -0.5430  0.5275 -0.1766
  158POPC   C2821098   7.614   5.072   2.988  0.1389 -0.8164 -0.1553
  158POPC   H8R21099   7.532   5.002   3.016 -0.2498 -0.5386 -0.5875
  158POPC   H8S21100   7.572   5.161   2.936  2.5019 -0.3692 -1.4560
  158POPC   C2921101   7.684   5.104   3.120 -0.8673 -0.0575  0.1347
  158POPC   H9121102   7.748   5.026   3.164 -1.7397  0.6122  2.7711
  158POPC  C21021103   7.683   5.222   3.182  0.5376 -0.4037 -0.3793
  158POPC  H10121104   7.727   5.232   3.283 -1.0626 -2.4711  0.6280
  158POPC  C21121105   7.608   5.345   3.142 -0.4991  0.3915 -0.3515
  158POPC  H11R21106   7.578   5.396   3.236  0.9593 -0.9703  0.9133
  158POPC  H11S21107   7.523   5.321   3.074  0.0824 -2.6743 -0.1567
  158POPC  C21221108   7.708   5.430   3.058 -0.0740  0.6006 -0.8162
  158POPC  H12R21109   7.729   5.383   2.960  0.7832 -0.8901  0.0412
  158POPC  H12S21110   7.813   5.417   3.093 -0.2104 -1.0123 -0.9095
  158POPC  C21321111   7.666   5.579   3.040  0.2647  0.4010 -0.2377
  158POPC  H13R21112   7.748   5.635   2.989  0.3970 -0.0795 -0.5523
  158POPC  H13S21113   7.643   5.627   3.137  1.0364 -1.4150  0.8920
  158POPC  C21421114   7.546   5.583   2.940 -1.1396  0.0262  0.4267
  158POPC  H14R21115   7.465   5.519   2.983  0.1403 -1.0673  1.3341
  158POPC  H14S21116   7.582   5.535   2.847  0.3685  3.7426 -1.0782
  158POPC  C21521117   7.490   5.723   2.917  0.2161  0.3789  0.1310
  158POPC  H15R21118   7.416   5.728   2.835  0.8095  0.6739 -0.3885
  158POPC  H15S21119   7.573   5.788   2.883 -0.3650  1.5364  0.8747
  158POPC  C21621120   7.418   5.793   3.035 -0.2906 -0.0125  1.2613
  158POPC  H16R21121   7.481   5.790   3.127  0.9776 -2.5296  0.4192
  158POPC  H16S21122   7.327   5.735   3.061 -1.0754  1.0949  1.0506
  158POPC  C21721123   7.391   5.941   3.004  0.6043  0.2179 -0.6239
  158POPC  H17R21124   7.327   5.956   2.915  0.4021 -1.5426 -0.8137
  158POPC  H17S21125   7.492   5.988   2.998  1.8841 -1.7942  2.5869
  158POPC  C21821126   7.332   5.999   3.130  0.3558  1.0935  0.5776
  158POPC  H18R21127   7.390   5.968   3.219  1.1658  0.2083 -0.2356
  158POPC  H18S21128   7.228   5.966   3.146  0.9243 -0.9562  0.2934
  158POPC  H18T21129   7.331   6.110   3.125 -0.6053  1.0823  0.2755
  158POPC   C3321130   8.181   4.652   2.595 -0.0516  0.2050  0.7486
  158POPC   H3X21131   8.155   4.545   2.579  2.4579 -0.2688 -0.5424
  158POPC   H3Y21132   8.087   4.710   2.587  0.5629  1.2214  0.8011
  158POPC   C3421133   8.237   4.664   2.740 -0.2100 -0.3842 -0.1032
  158POPC   H4X21134   8.292   4.760   2.744 -0.1747 -0.3948 -0.3681
  158POPC   H4Y21135   8.312   4.588   2.771  1.0473  1.6715  2.3019
  158POPC   C3521136   8.132   4.678   2.850  0.7003 -0.9090  0.3446
  158POPC   H5X21137   8.051   4.602   2.849 -3.1684  2.7430 -2.1687
  158POPC   H5Y21138   8.080   4.773   2.824 -1.8405 -2.6838 -1.5995
  158POPC   C3621139   8.194   4.688   2.994  0.3590  0.3803 -0.1632
  158POPC   H6X21140   8.267   4.772   2.993  1.1757 -0.2837 -2.1796
  158POPC   H6Y21141   8.241   4.590   3.019 -0.6514 -0.6652 -2.1217
  158POPC   C3721142   8.083   4.721   3.095  0.5125 -0.0959  0.0624
  158POPC   H7X21143   8.002   4.646   3.092 -1.2683  1.7631 -1.1754
  158POPC   H7Y21144   8.025   4.800   3.044  1.2084 -0.6213 -1.6126
  158POPC   C3821145   8.126   4.760   3.236 -0.0322 -0.2715 -0.1664
  158POPC   H8X21146   8.046   4.806   3.297  0.2602  0.3335 -0.2336
  158POPC   H8Y21147   8.215   4.827   3.231 -0.9463  1.0956  1.2289
  158POPC   C3921148   8.180   4.649   3.327  0.3267 -0.2731  0.5850
  158POPC   H9X21149   8.276   4.613   3.283 -0.4176 -0.7269 -0.6962
  158POPC   H9Y21150   8.109   4.564   3.333  1.9316 -1.8777 -1.5217
  158POPC  C31021151   8.198   4.695   3.472  0.4751  0.1379  0.4616
  158POPC  H10X21152   8.101   4.728   3.514  0.8479  0.7636  0.8473
  158POPC  H10Y21153   8.258   4.789   3.469 -0.9699  1.1196  1.1008
  158POPC  C31121154   8.260   4.597   3.569  0.2014  0.4301  0.2817
  158POPC  H11X21155   8.359   4.574   3.524 -0.0315  0.7821 -0.4271
  158POPC  H11Y21156   8.205   4.505   3.598 -0.3137  0.1305 -1.5226
  158POPC  C31221157   8.289   4.663   3.706  0.0189  0.5746  0.6074
  158POPC  H12X21158   8.198   4.689   3.763 -0.2828  2.7379 -0.7460
  158POPC  H12Y21159   8.343   4.760   3.699  1.3429 -0.1688  0.2031
  158POPC  C31321160   8.366   4.563   3.800 -0.4684  0.4804 -0.2164
  158POPC  H13X21161   8.459   4.525   3.753  0.0795  1.0893  0.3571
  158POPC  H13Y21162   8.302   4.475   3.822  0.7454 -0.8277 -1.6998
  158POPC  C31421163   8.388   4.629   3.935  0.1106  0.5153 -0.1924
  158POPC  H14X21164   8.302   4.675   3.988  0.5173  1.9264 -0.7112
  158POPC  H14Y21165   8.461   4.712   3.947 -1.9340  2.4565 -0.5588
  158POPC  C31521166   8.449   4.526   4.028  0.7963 -0.6347  0.1908
  158POPC  H15X21167   8.368   4.451   4.043  0.7884 -0.6775 -0.0594
  158POPC  H15Y21168   8.469   4.568   4.129 -2.0774  0.3267  0.4677
  158POPC  C31621169   8.578   4.464   3.986  0.6570 -0.4724  0.3527
  158POPC  H16X21170   8.562   4.419   3.885  1.1549 -1.0807  0.5427
  158POPC  H16Y21171   8.615   4.386   4.056  1.0449  0.8349  1.6412
  158POPC  H16Z21172   8.663   4.535   3.977 -0.3107  0.6443 -0.3048
  159POPC     N21173   4.592   7.083   1.483  0.5367 -0.6506  0.0592
  159POPC   C1221174   4.584   6.951   1.556  0.2243  0.6495  0.3956
  159POPC  H12A21175   4.627   6.870   1.498 -0.2082  1.1546 -0.6499
  159POPC  H12B21176   4.480   6.931   1.573  0.4440  0.9894  2.5112
  159POPC   C1321177   4.529   7.073   1.347  0.0362 -0.0184 -0.5580
  159POPC  H13A21178   4.579   7.007   1.279  0.9524 -0.9383  0.9581
  159POPC  H13B21179   4.424   7.049   1.351  0.3159 -1.2183 -0.0411
  159POPC  H13C21180   4.549   7.170   1.303 -2.8277  0.7333 -0.4392
  159POPC   C1421181   4.519   7.191   1.560 -0.7350 -0.3391  0.7640
  159POPC  H14A21182   4.538   7.190   1.666  2.3585 -1.5010  0.2986
  159POPC  H14B21183   4.525   7.284   1.505  1.0988 -0.7502  0.2098
  159POPC  H14C21184   4.415   7.163   1.560 -1.7395  2.8520 -0.3506
  159POPC   C1521185   4.735   7.133   1.478  0.2211 -0.4433  0.2622
  159POPC  H15A21186   4.786   7.072   1.405  0.6937 -0.3382  0.4977
  159POPC  H15B21187   4.779   7.122   1.576 -0.3121  0.3437  0.6070
  159POPC  H15C21188   4.737   7.235   1.441  0.9352  0.4835  2.6472
  159POPC   C1121189   4.647   6.946   1.699 -0.5390  0.0018  0.1093
  159POPC  H11A21190   4.619   6.842   1.729  0.1388 -0.1563  0.2199
  159POPC  H11B21191   4.604   7.025   1.764  1.6546 -0.2160  1.9369
  159POPC     P21192   4.879   6.837   1.647  0.2384 -0.1008  0.1967
  159POPC   O1321193   5.021   6.877   1.637 -0.2550  0.2541  0.3141
  159POPC   O1421194   4.818   6.782   1.523  0.8079  0.2820 -0.3039
  159POPC   O1221195   4.790   6.957   1.697 -0.3181  0.5300  0.3748
  159POPC   O1121196   4.866   6.730   1.761  0.1322  0.4185 -0.5403
  159POPC    C121197   4.914   6.740   1.896 -0.1270 -0.0603  0.6974
  159POPC    HA21198   4.959   6.837   1.928 -0.5889  0.4744 -0.2414
  159POPC    HB21199   4.989   6.659   1.902 -0.4045 -0.6861 -2.5357
  159POPC    C221200   4.812   6.708   2.011  0.1723 -0.0901 -0.4422
  159POPC    HS21201   4.767   6.610   1.988  1.5680 -1.4754  2.2209
  159POPC   O2121202   4.711   6.815   2.015  0.1150 -0.2547  0.1341
  159POPC   C2121203   4.589   6.776   2.033 -0.0475  0.0133 -0.0546
  159POPC   O2221204   4.545   6.661   2.009 -0.4290 -0.2460 -0.3955
  159POPC   C2221205   4.503   6.889   2.086  0.8178  0.3172  0.2047
  159POPC   H2R21206   4.489   6.963   2.004  0.7378 -0.1882 -0.2459
  159POPC   H2S21207   4.568   6.948   2.155  2.2588  0.7734 -1.4665
  159POPC    C321208   4.869   6.679   2.153  0.3519 -0.3998 -0.4912
  159POPC    HX21209   4.927   6.770   2.180  0.1168 -0.5167  0.4428
  159POPC    HY21210   4.949   6.602   2.163  1.6359  1.0349  0.8829
  159POPC   O3121211   4.767   6.653   2.248  0.1265  0.1122  0.5226
  159POPC   C3121212   4.710   6.535   2.236  0.5078 -0.3568  0.7709
  159POPC   O3221213   4.736   6.443   2.158 -0.0681 -0.1527  0.5287
  159POPC   C3221214   4.575   6.537   2.320 -0.5988 -0.8816  0.3118
  159POPC   H2X21215   4.567   6.436   2.366 -1.6008 -0.8281  0.2841
  159POPC   H2Y21216   4.489   6.570   2.258 -0.4460 -5.7724 -3.0672
  159POPC   C2321217   4.360   6.862   2.153  0.4473  0.7783 -0.5452
  159POPC   H3R21218   4.372   6.760   2.193  0.4996  1.1585  0.4372
  159POPC   H3S21219   4.275   6.864   2.081 -1.1771 -0.5896  1.2481
  159POPC   C2421220   4.340   6.948   2.274  0.6173  0.0901 -0.4284
  159POPC   H4R21221   4.329   7.057   2.254 -1.0492  1.1431  4.6499
  159POPC   H4S21222   4.423   6.943   2.348  1.2837  2.7039 -0.8711
  159POPC   C2521223   4.206   6.906   2.338  0.1949  0.5066 -0.5365
  159POPC   H5R21224   4.212   6.802   2.378 -2.7903  0.0856 -0.9205
  159POPC   H5S21225   4.122   6.887   2.268 -0.3449 -2.9599  0.8289
  159POPC   C2621226   4.155   6.986   2.467  1.0758 -0.3916 -0.2310
  159POPC   H6R21227   4.216   6.968   2.558 -0.1061  0.1761  0.7005
  159POPC   H6S21228   4.053   6.949   2.490  2.0454 -2.0047  1.8701
  159POPC   C2721229   4.154   7.138   2.450 -0.3050  0.0993  0.4679
  159POPC   H7R21230   4.097   7.160   2.357  1.4381  0.5758 -0.5455
  159POPC   H7S21231   4.259   7.175   2.444  0.2665 -1.1721  2.0868
  159POPC   C2821232   4.077   7.220   2.558 -0.1354  0.3934  0.0271
  159POPC   H8R21233   4.125   7.182   2.650 -0.9931 -0.1971  0.2418
  159POPC   H8S21234   3.969   7.194   2.553  0.0273 -0.2693 -0.1687
  159POPC   C2921235   4.094   7.374   2.551  0.1933 -0.2440  0.1587
  159POPC   H9121236   4.047   7.428   2.468 -0.2912 -0.9399 -0.0255
  159POPC  C21021237   4.172   7.449   2.639  0.8680 -0.3960 -0.3622
  159POPC  H10121238   4.185   7.558   2.627  1.0677 -0.3845 -0.0662
  159POPC  C21121239   4.247   7.388   2.759  0.1250  1.2992 -0.2412
  159POPC  H11R21240   4.343   7.347   2.720  0.9403  1.8440  1.1103
  159POPC  H11S21241   4.184   7.302   2.789  1.5152  0.1542 -0.4705
  159POPC  C21221242   4.291   7.476   2.871  0.5693  0.3751 -0.2353
  159POPC  H12R21243   4.337   7.564   2.823 -1.0288  1.1464 -0.4199
  159POPC  H12S21244   4.367   7.421   2.931  0.5200  0.4685 -0.0878
  159POPC  C21321245   4.180   7.522   2.967 -0.0973 -0.0126  0.8947
  159POPC  H13R21246   4.118   7.607   2.930  1.6644  1.0436  0.2464
  159POPC  H13S21247   4.234   7.551   3.059  0.2059 -1.1591  1.0910
  159POPC  C21421248   4.086   7.406   3.004 -0.0756  0.3716 -0.3077
  159POPC  H14R21249   4.151   7.316   3.015  0.7914  0.9084 -0.8373
  159POPC  H14S21250   4.025   7.388   2.913  0.4050  0.9219 -0.7497
  159POPC  C21521251   4.013   7.430   3.137 -0.2186  0.0149 -0.2353
  159POPC  H15R21252   4.083   7.425   3.223 -1.9314  0.4453  1.2595
  159POPC  H15S21253   3.929   7.358   3.143  0.5177 -0.7833  0.9521
  159POPC  C21621254   3.943   7.566   3.150 -0.1073 -0.0333 -0.6095
  159POPC  H16R21255   3.865   7.563   3.071  0.1168  0.4919 -0.8495
  159POPC  H16S21256   4.012   7.652   3.136 -0.2363  0.2279  0.2922
  159POPC  C21721257   3.862   7.589   3.276  0.2193 -0.0146 -0.4907
  159POPC  H17R21258   3.858   7.699   3.269  0.8197  0.2970  2.5454
  159POPC  H17S21259   3.920   7.573   3.370 -0.0092  1.9394  0.0275
  159POPC  C21821260   3.732   7.511   3.294 -0.2530 -0.4475  0.1725
  159POPC  H18R21261   3.738   7.400   3.284 -0.1546 -0.4197 -0.1029
  159POPC  H18S21262   3.661   7.543   3.214  0.5308 -1.9421 -1.1960
  159POPC  H18T21263   3.681   7.534   3.389  1.3575 -0.1225  0.9980
  159POPC   C3321264   4.585   6.634   2.434  0.0588  0.3811 -0.3188
  159POPC   H3X21265   4.583   6.735   2.389  0.8145 -0.1132 -1.5195
  159POPC   H3Y21266   4.684   6.621   2.483  0.3686  0.9897 -0.7741
  159POPC   C3421267   4.474   6.607   2.540 -0.5709 -0.0190 -0.1530
  159POPC   H4X21268   4.493   6.512   2.595  0.3360  1.6497  2.5783
  159POPC   H4Y21269   4.377   6.602   2.486 -1.1527  0.9376  0.7640
  159POPC   C3521270   4.465   6.712   2.651 -0.8126  0.1497  0.0674
  159POPC   H5X21271   4.458   6.812   2.603  1.2770 -0.5172 -1.7512
  159POPC   H5Y21272   4.561   6.711   2.706 -0.7050  1.0443 -0.0753
  159POPC   C3621273   4.356   6.679   2.744  0.8052 -0.4693  0.4299
  159POPC   H6X21274   4.364   6.579   2.792  0.6358 -0.1185  1.1931
  159POPC   H6Y21275   4.262   6.683   2.685  1.1159 -1.2842 -0.1482
  159POPC   C3721276   4.341   6.786   2.852 -0.6764 -0.5691  0.7711
  159POPC   H7X21277   4.346   6.882   2.795  0.2387 -1.9631 -1.6647
  159POPC   H7Y21278   4.427   6.777   2.922  0.4374  0.5781 -0.4037
  159POPC   C3821279   4.217   6.764   2.931 -0.0591 -0.8148  0.1342
  159POPC   H8X21280   4.237   6.677   2.997  1.0482 -0.3302  0.4505
  159POPC   H8Y21281   4.132   6.744   2.862  0.2637  2.0144 -1.1977
  159POPC   C3921282   4.187   6.880   3.018  0.1508  0.2067  0.3618
  159POPC   H9X21283   4.156   6.968   2.958 -0.1041  0.8956  1.4707
  159POPC   H9Y21284   4.275   6.906   3.081 -0.6993  0.0393  1.6592
  159POPC  C31021285   4.073   6.854   3.117  0.3486  0.7386 -0.1052
  159POPC  H10X21286   3.980   6.822   3.064  1.2566 -0.3943 -1.0450
  159POPC  H10Y21287   4.048   6.943   3.179 -0.4871  1.2580 -1.1407
  159POPC  C31121288   4.099   6.741   3.214  0.5955  0.3903 -0.4504
  159POPC  H11X21289   4.189   6.764   3.274  0.2124 -1.4645  0.9668
  159POPC  H11Y21290   4.116   6.644   3.162 -0.4229 -0.7538  1.2041
  159POPC  C31221291   3.993   6.710   3.321 -0.3932  0.6813 -0.0079
  159POPC  H12X21292   3.948   6.806   3.353 -1.0905  0.8934 -1.5522
  159POPC  H12Y21293   4.026   6.659   3.414 -0.6237 -0.0900 -0.3411
  159POPC  C31321294   3.880   6.623   3.266 -0.5466  0.1978  0.0485
  159POPC  H13X21295   3.839   6.655   3.168 -1.2432 -2.3666 -0.5647
  159POPC  H13Y21296   3.799   6.628   3.341 -3.1549 -0.3309 -2.5504
  159POPC  C31421297   3.921   6.476   3.246  0.2924  0.5667  0.4433
  159POPC  H14X21298   3.991   6.442   3.326  0.5633  0.2860  0.0886
  159POPC  H14Y21299   3.962   6.475   3.143 -0.2555  2.9212  0.1278
  159POPC  C31521300   3.821   6.352   3.238  0.1524 -0.2752  0.7767
  159POPC  H15X21301   3.880   6.268   3.194  0.9774  0.5946  0.1802
  159POPC  H15Y21302   3.741   6.370   3.163  0.6410 -0.3810  0.2226
  159POPC  C31621303   3.751   6.319   3.366 -0.3535  0.4460  0.1776
  159POPC  H16X21304   3.833   6.287   3.433  1.0311  1.6300 -0.8716
  159POPC  H16Y21305   3.668   6.249   3.342  0.0916  0.9360 -3.3729
  159POPC  H16Z21306   3.711   6.416   3.402 -0.0715  0.4990  0.3478
  160POPC     N21307   7.962   7.629   1.912 -0.3672 -0.3823 -0.2878
  160POPC   C1221308   7.977   7.563   1.783 -0.5031 -0.7312 -0.0408
  160POPC  H12A21309   7.890   7.584   1.723  0.2400 -0.7599 -1.1677
  160POPC  H12B21310   7.977   7.455   1.788  2.0968 -0.7123  2.5083
  160POPC   C1321311   8.072   7.585   2.003  0.3453  0.4697  0.4575
  160POPC  H13A21312   8.166   7.593   1.951  0.5894 -0.9944  0.6468
  160POPC  H13B21313   8.083   7.655   2.084 -0.0578  0.8333  0.2064
  160POPC  H13C21314   8.063   7.485   2.041  1.5000  0.5921  1.0923
  160POPC   C1421315   7.974   7.777   1.882 -0.7048  0.2361  0.3871
  160POPC  H14A21316   7.971   7.845   1.966  2.6440 -0.7189  1.4191
  160POPC  H14B21317   8.072   7.797   1.841 -0.5579 -0.2810  0.4817
  160POPC  H14C21318   7.896   7.800   1.811  0.3896 -0.9667 -1.2912
  160POPC   C1521319   7.839   7.589   1.978  0.4117  0.6477 -0.0046
  160POPC  H15A21320   7.827   7.640   2.073 -0.5468 -0.0044  0.2447
  160POPC  H15B21321   7.841   7.484   2.001 -1.0107  0.3790 -0.9477
  160POPC  H15C21322   7.750   7.601   1.917 -1.2075 -1.7614  1.7097
  160POPC   C1121323   8.099   7.610   1.693 -0.1019 -0.1450  0.6056
  160POPC  H11A21324   8.126   7.717   1.688  1.8679 -0.5851  0.8694
  160POPC  H11B21325   8.071   7.585   1.589  0.2050  2.8472 -0.2818
  160POPC     P21326   8.357   7.593   1.748 -0.0184  0.0697  0.3706
  160POPC   O1321327   8.401   7.625   1.609  0.4415  0.5051 -0.3695
  160POPC   O1421328   8.440   7.502   1.829 -0.3032 -0.6943  0.1225
  160POPC   O1221329   8.210   7.540   1.735  0.0276  0.2432 -0.5020
  160POPC   O1121330   8.337   7.734   1.823  0.7656 -0.1817  0.0331
  160POPC    C121331   8.455   7.800   1.877  0.3528  0.2966  0.4795
  160POPC    HA21332   8.481   7.891   1.819  1.7977  0.0233  0.6502
  160POPC    HB21333   8.546   7.735   1.878 -0.2047 -0.4906  0.5755
  160POPC    C221334   8.450   7.863   2.020 -0.1399  0.1146  0.3772
  160POPC    HS21335   8.552   7.898   2.042  1.0142 -3.3871  1.3004
  160POPC   O2121336   8.416   7.760   2.115 -0.3394  0.2638 -0.0353
  160POPC   C2121337   8.522   7.676   2.141  1.3011  0.8249  0.3338
  160POPC   O2221338   8.629   7.677   2.085  0.3426  0.0473  0.0089
  160POPC   C2221339   8.486   7.590   2.262  0.1121 -0.6614 -0.1352
  160POPC   H2R21340   8.412   7.514   2.227 -3.0228  1.9895  0.2453
  160POPC   H2S21341   8.437   7.659   2.333 -0.8896 -1.0109 -0.4657
  160POPC    C321342   8.355   7.985   2.033  0.0364 -0.1899 -0.3589
  160POPC    HX21343   8.253   7.956   1.999 -0.5448  2.0707 -0.7121
  160POPC    HY21344   8.381   8.070   1.968 -2.5366  1.5851  0.7551
  160POPC   O3121345   8.350   8.037   2.170  0.1335  0.5454  0.2341
  160POPC   C3121346   8.232   8.098   2.198  0.3771 -0.1862 -0.9803
  160POPC   O3221347   8.129   8.094   2.132 -0.5062  0.0160  0.3137
  160POPC   C3221348   8.256   8.194   2.320 -0.3094  0.3283 -0.2804
  160POPC   H2X21349   8.162   8.248   2.347  0.2834  0.6150  1.2991
  160POPC   H2Y21350   8.327   8.269   2.280  0.9391 -0.4123  0.4808
  160POPC   C2321351   8.615   7.547   2.337 -0.0726 -0.0093 -0.3356
  160POPC   H3R21352   8.664   7.636   2.382  0.3823 -0.7010  0.5773
  160POPC   H3S21353   8.687   7.498   2.267 -0.5297  0.2310 -0.9894
  160POPC   C2421354   8.593   7.447   2.448  0.2305 -0.2158 -0.1865
  160POPC   H4R21355   8.510   7.487   2.509  0.3802  2.3479 -1.5349
  160POPC   H4S21356   8.688   7.441   2.507  1.3167 -1.8939 -1.9568
  160POPC   C2521357   8.563   7.307   2.388 -0.3906 -1.0407  0.2522
  160POPC   H5R21358   8.651   7.263   2.336  0.0004 -0.0787  0.0621
  160POPC   H5S21359   8.476   7.315   2.319 -0.1520  1.1267  0.1087
  160POPC   C2621360   8.531   7.198   2.491 -0.3485 -0.1317 -0.6748
  160POPC   H6R21361   8.491   7.105   2.446  0.1885 -0.8885  0.3618
  160POPC   H6S21362   8.454   7.227   2.565 -0.3226 -0.9784 -0.3048
  160POPC   C2721363   8.651   7.150   2.573  0.1878  0.2347 -0.4552
  160POPC   H7R21364   8.713   7.240   2.596  2.3643 -0.5731 -2.7620
  160POPC   H7S21365   8.720   7.095   2.506 -0.4407  0.3789 -1.2281
  160POPC   C2821366   8.610   7.063   2.695  0.2287  0.0358  0.6655
  160POPC   H8R21367   8.548   6.974   2.677 -0.9692  0.7850  0.9798
  160POPC   H8S21368   8.537   7.125   2.752 -1.9371  0.2943 -2.2006
  160POPC   C2921369   8.720   7.025   2.791  0.3818  0.1224 -0.1186
  160POPC   H9121370   8.814   7.004   2.737  1.5116  0.6643  1.5816
  160POPC  C21021371   8.720   7.042   2.926 -0.0047 -0.2200  0.9281
  160POPC  H10121372   8.807   7.010   2.985 -0.2386  0.6885  1.8047
  160POPC  C21121373   8.593   7.081   3.013 -0.1587  0.0347 -0.0637
  160POPC  H11R21374   8.499   7.072   2.955  0.6561  2.5919 -1.9671
  160POPC  H11S21375   8.610   7.187   3.043  1.3026 -0.4786  1.0423
  160POPC  C21221376   8.575   6.996   3.137  0.0310  0.4175  0.4014
  160POPC  H12R21377   8.510   7.047   3.211  1.1064  0.4478  1.3549
  160POPC  H12S21378   8.667   6.989   3.200 -1.1424  0.1831  2.1778
  160POPC  C21321379   8.529   6.858   3.117  0.0985 -0.0989  0.3236
  160POPC  H13R21380   8.457   6.868   3.033 -0.8053 -1.0342  0.9666
  160POPC  H13S21381   8.468   6.843   3.209 -0.2223 -0.3864  0.0660
  160POPC  C21421382   8.642   6.750   3.093 -0.8625  0.6453  0.2806
  160POPC  H14R21383   8.703   6.765   3.185 -0.2474 -0.1493  0.0111
  160POPC  H14S21384   8.687   6.771   2.994  2.2756  1.6163  1.8068
  160POPC  C21521385   8.586   6.596   3.099 -0.3529  0.8451  0.6732
  160POPC  H15R21386   8.520   6.581   3.011  0.4365  0.0658  0.1849
  160POPC  H15S21387   8.536   6.592   3.198 -1.1616 -0.2661  0.2443
  160POPC  C21621388   8.702   6.495   3.085 -0.2245 -0.0354 -0.3929
  160POPC  H16R21389   8.769   6.507   3.173  4.0294  0.2515 -3.3593
  160POPC  H16S21390   8.749   6.537   2.994 -1.8435 -0.3946 -1.4360
  160POPC  C21721391   8.673   6.343   3.086 -0.3339 -1.2462 -0.6448
  160POPC  H17R21392   8.614   6.315   3.176 -1.8522  1.1197 -0.8166
  160POPC  H17S21393   8.769   6.287   3.092  1.1651  1.3432  3.8774
  160POPC  C21821394   8.604   6.294   2.962 -0.1400 -0.2316 -0.1535
  160POPC  H18R21395   8.645   6.342   2.870 -1.1530 -0.4548 -0.7405
  160POPC  H18S21396   8.500   6.334   2.962 -0.4405 -0.9371  1.4705
  160POPC  H18T21397   8.606   6.183   2.959  1.6742 -0.2332  0.1870
  160POPC   C3321398   8.300   8.122   2.446  0.0152  0.2819 -0.2527
  160POPC   H3X21399   8.276   8.186   2.534  1.5412  3.2490 -1.8415
  160POPC   H3Y21400   8.408   8.099   2.453 -0.0031 -0.0131 -0.8267
  160POPC   C3421401   8.205   8.002   2.474  0.2320 -0.4802  0.4298
  160POPC   H4X21402   8.229   7.925   2.398  0.1095  1.4375 -1.6531
  160POPC   H4Y21403   8.099   8.033   2.459 -0.0531 -2.4627 -2.4004
  160POPC   C3521404   8.218   7.935   2.613  0.0481 -0.3258 -0.1669
  160POPC   H5X21405   8.323   7.901   2.625  0.1622  0.4120  0.9814
  160POPC   H5Y21406   8.160   7.840   2.617  0.2409 -0.3952  1.1679
  160POPC   C3621407   8.180   8.013   2.737  0.4983  0.2828  0.1592
  160POPC   H6X21408   8.085   8.067   2.720  1.1622  1.0038 -1.5200
  160POPC   H6Y21409   8.250   8.099   2.737  0.4156  0.3615  1.0153
  160POPC   C3721410   8.196   7.923   2.868 -0.1823  0.3606 -0.5095
  160POPC   H7X21411   8.300   7.883   2.866 -0.8526 -1.4464 -0.1503
  160POPC   H7Y21412   8.126   7.837   2.867  0.7342 -0.4531  1.1420
  160POPC   C3821413   8.170   8.006   2.989 -0.1317 -0.0405 -0.6567
  160POPC   H8X21414   8.063   8.036   2.995 -0.1368 -0.2115  0.1304
  160POPC   H8Y21415   8.218   8.106   2.991 -0.7865  0.2612  0.7141
  160POPC   C3921416   8.218   7.945   3.126  0.2828 -0.3528 -0.1890
  160POPC   H9X21417   8.323   7.915   3.103  0.2066  1.3046 -3.1207
  160POPC   H9Y21418   8.157   7.853   3.136 -3.4865  1.7525 -1.6956
  160POPC  C31021419   8.224   8.050   3.245  0.7830  0.3221 -0.1385
  160POPC  H10X21420   8.122   8.091   3.254 -1.2449 -3.7816 -1.8475
  160POPC  H10Y21421   8.304   8.121   3.215  1.6805 -0.5543  0.1305
  160POPC  C31121422   8.272   7.980   3.374 -0.2906  0.0038  0.4690
  160POPC  H11X21423   8.372   7.931   3.379 -1.0056 -1.4026  1.8993
  160POPC  H11Y21424   8.201   7.899   3.402  0.5469  0.0284  2.8465
  160POPC  C31221425   8.279   8.076   3.490 -0.3490 -0.2436 -0.9225
  160POPC  H12X21426   8.182   8.128   3.499 -0.5391 -0.9840  2.7655
  160POPC  H12Y21427   8.364   8.146   3.475  0.5192 -0.6292  1.5979
  160POPC  C31321428   8.291   7.992   3.624  0.0083 -0.4748 -0.1909
  160POPC  H13X21429   8.312   8.072   3.697  0.8829  0.6690 -1.6278
  160POPC  H13Y21430   8.369   7.913   3.614 -2.2143 -2.5174 -3.1169
  160POPC  C31421431   8.179   7.907   3.667 -0.1552  0.4566  0.3882
  160POPC  H14X21432   8.204   7.869   3.768  1.1819  0.3208  0.0149
  160POPC  H14Y21433   8.164   7.823   3.596  4.1988 -2.4598  2.5211
  160POPC  C31521434   8.052   7.987   3.699 -0.1525  0.1209 -0.4106
  160POPC  H15X21435   7.961   7.925   3.716 -0.7915  1.2804  0.6143
  160POPC  H15Y21436   8.029   8.060   3.619 -0.1345  0.8731  0.2527
  160POPC  C31621437   8.061   8.066   3.836 -0.0729 -0.2257  0.7978
  160POPC  H16X21438   8.138   8.146   3.838 -1.5720  1.3609 -1.1553
  160POPC  H16Y21439   8.080   8.002   3.925  1.4022 -1.8087 -0.5699
  160POPC  H16Z21440   7.970   8.121   3.867  1.2088  0.5175  3.5370
  161POPC     N21441   2.256   1.040   1.663 -1.1548 -0.1772 -0.2747
  161POPC   C1221442   2.298   0.935   1.760 -0.0348 -0.0300 -0.7022
  161POPC  H12A21443   2.368   0.981   1.828 -0.9992  3.0704 -1.6214
  161POPC  H12B21444   2.349   0.860   1.701  1.7740  0.0947  0.6250
  161POPC   C1321445   2.369   1.063   1.567  0.2231  0.1254  0.0933
  161POPC  H13A21446   2.386   0.980   1.500 -1.3944  1.8264 -2.5984
  161POPC  H13B21447   2.340   1.143   1.502 -0.2039 -0.5803 -0.6066
  161POPC  H13C21448   2.458   1.094   1.621 -0.1847 -0.1695  0.9548
  161POPC   C1421449   2.131   1.001   1.581  0.1956 -0.5269 -0.4077
  161POPC  H14A21450   2.147   0.911   1.523  0.3277  0.4022 -1.8697
  161POPC  H14B21451   2.049   0.969   1.643 -2.0204  0.9189 -2.4178
  161POPC  H14C21452   2.116   1.082   1.512  2.0743 -0.1988 -0.4973
  161POPC   C1521453   2.211   1.170   1.722 -0.9354 -0.4687 -0.1174
  161POPC  H15A21454   2.191   1.247   1.648 -1.7555 -1.3705 -0.8765
  161POPC  H15B21455   2.287   1.207   1.789  1.3111 -4.1941 -0.3806
  161POPC  H15C21456   2.126   1.155   1.787 -0.5771 -0.6889  0.2986
  161POPC   C1121457   2.183   0.864   1.840  0.2915 -0.5873 -0.2879
  161POPC  H11A21458   2.119   0.941   1.888 -1.5156 -2.7308  0.9866
  161POPC  H11B21459   2.227   0.797   1.917  2.2667 -0.4494 -1.2385
  161POPC     P21460   2.116   0.656   1.686 -0.3729  0.6520 -0.1079
  161POPC   O1321461   2.213   0.686   1.578 -0.4717 -0.6378 -0.1630
  161POPC   O1421462   1.980   0.606   1.643  0.8181 -0.8623 -0.0476
  161POPC   O1221463   2.088   0.788   1.762 -0.9694 -0.6290  0.2663
  161POPC   O1121464   2.169   0.555   1.799  0.9679 -0.2131  0.3596
  161POPC    C121465   2.090   0.549   1.920  0.4788  0.1211  0.0566
  161POPC    HA21466   1.984   0.532   1.892  1.0462  0.7801 -2.7797
  161POPC    HB21467   2.092   0.642   1.980 -1.3548  1.1591 -1.4010
  161POPC    C221468   2.117   0.407   1.987 -0.3511  0.0928  0.4648
  161POPC    HS21469   2.032   0.384   2.055 -1.3610 -0.6331 -1.0148
  161POPC   O2121470   2.244   0.401   2.054  0.0586  0.1168  0.1442
  161POPC   C2121471   2.242   0.467   2.166 -0.3224 -0.1588 -0.8562
  161POPC   O2221472   2.155   0.537   2.211  0.7653  0.9461 -0.4314
  161POPC   C2221473   2.378   0.447   2.232  0.6766 -0.1133 -0.5865
  161POPC   H2R21474   2.450   0.494   2.161 -0.9500  1.0784 -1.5280
  161POPC   H2S21475   2.394   0.338   2.245  0.9213  0.0815  0.8240
  161POPC    C321476   2.098   0.292   1.880  0.6381 -0.3600 -0.3085
  161POPC    HX21477   2.181   0.288   1.806 -0.3710  0.4895 -1.5212
  161POPC    HY21478   2.004   0.308   1.824 -0.6665 -0.6209  1.7015
  161POPC   O3121479   2.067   0.170   1.959  0.3933 -0.6285  0.3684
  161POPC   C3121480   2.173   0.098   1.992  0.3185  0.9554 -0.1867
  161POPC   O3221481   2.288   0.131   1.961 -0.7218  0.0311  0.5972
  161POPC   C3221482   2.140  -0.016   2.080 -0.1596 -0.5306 -0.7720
  161POPC   H2X21483   2.156  -0.108   2.020  2.3597  0.3585 -1.5628
  161POPC   H2Y21484   2.035  -0.004   2.114  0.1540 -0.4261  0.1850
  161POPC   C2321485   2.379   0.528   2.367  0.0006  0.0776  0.3779
  161POPC   H3R21486   2.334   0.466   2.447  0.4534 -0.0153  0.5630
  161POPC   H3S21487   2.326   0.625   2.359  1.9947  1.0927 -2.2375
  161POPC   C2421488   2.517   0.556   2.418 -0.5229 -0.0078  0.7595
  161POPC   H4R21489   2.572   0.622   2.348 -2.5713  0.2535 -0.7203
  161POPC   H4S21490   2.575   0.461   2.420  0.2075  0.2736 -2.3634
  161POPC   C2521491   2.514   0.633   2.557 -0.1436  1.1249  1.1564
  161POPC   H5R21492   2.455   0.724   2.530 -1.4129  0.2081  0.7554
  161POPC   H5S21493   2.620   0.649   2.588  0.5818 -0.9119 -0.0851
  161POPC   C2621494   2.432   0.572   2.677 -0.0526  0.4867  0.2636
  161POPC   H6R21495   2.491   0.600   2.767 -0.4044  1.9552  0.0641
  161POPC   H6S21496   2.443   0.464   2.655  0.1988  0.9136 -1.9510
  161POPC   C2721497   2.287   0.618   2.701 -0.0111 -0.5272  0.2411
  161POPC   H7R21498   2.219   0.580   2.622 -0.1973 -1.0736  0.6579
  161POPC   H7S21499   2.276   0.728   2.689 -2.3660 -0.5435  1.6503
  161POPC   C2821500   2.231   0.586   2.846  0.5545  0.1931  0.0451
  161POPC   H8R21501   2.310   0.627   2.912  0.1183  0.8682  0.1506
  161POPC   H8S21502   2.244   0.476   2.852 -2.3839 -0.2752 -0.6629
  161POPC   C2921503   2.090   0.634   2.878  0.4182 -0.1684 -0.2656
  161POPC   H9121504   2.001   0.573   2.857 -0.2628  0.2192  1.3982
  161POPC  C21021505   2.069   0.752   2.944 -0.5880  0.2556 -0.5271
  161POPC  H10121506   1.970   0.783   2.979  0.7832  1.2310  2.9471
  161POPC  C21121507   2.175   0.846   2.987 -0.2506  0.0018  0.9225
  161POPC  H11R21508   2.161   0.946   2.940  0.0292 -1.1967 -1.9204
  161POPC  H11S21509   2.278   0.829   2.949  0.0130  1.6218  0.8165
  161POPC  C21221510   2.198   0.868   3.136 -0.0488 -0.9606 -0.8701
  161POPC  H12R21511   2.109   0.908   3.190  0.0248  1.4986 -2.3911
  161POPC  H12S21512   2.277   0.943   3.157 -2.5508  1.6045  0.1940
  161POPC  C21321513   2.219   0.736   3.205  0.1550 -0.1773 -1.0868
  161POPC  H13R21514   2.301   0.686   3.150 -0.4524 -1.7376 -0.6406
  161POPC  H13S21515   2.121   0.684   3.194  0.8792 -1.8061 -0.1837
  161POPC  C21421516   2.260   0.744   3.354 -0.4224 -0.1504  0.0872
  161POPC  H14R21517   2.173   0.789   3.406 -0.6287  1.5860 -1.6133
  161POPC  H14S21518   2.338   0.820   3.373 -1.6104  1.6087 -1.6343
  161POPC  C21521519   2.287   0.615   3.434  0.0011  0.6492  0.6431
  161POPC  H15R21520   2.319   0.643   3.536 -0.0980 -1.1556  1.2014
  161POPC  H15S21521   2.381   0.561   3.408 -1.2225 -1.4892  0.3578
  161POPC  C21621522   2.174   0.516   3.414 -0.4581  0.2622  0.3894
  161POPC  H16R21523   2.190   0.477   3.311 -0.7374 -1.1638  0.8724
  161POPC  H16S21524   2.072   0.559   3.425 -0.3773  0.1697  1.6899
  161POPC  C21721525   2.194   0.388   3.506 -0.3412  0.5922  0.6601
  161POPC  H17R21526   2.177   0.428   3.609 -0.4890 -0.4175  1.0366
  161POPC  H17S21527   2.292   0.338   3.496 -0.3470  1.0347 -2.6997
  161POPC  C21821528   2.093   0.287   3.466  0.2550  0.3290 -0.0106
  161POPC  H18R21529   2.097   0.190   3.519 -0.2731  0.6801  0.6821
  161POPC  H18S21530   2.101   0.271   3.356  2.3568  0.6211  0.0562
  161POPC  H18T21531   1.994   0.322   3.503 -0.4911 -0.8040 -0.8396
  161POPC   C3321532   2.242  -0.022   2.194  1.1818  0.3245 -0.4093
  161POPC   H3X21533   2.347  -0.036   2.159  1.1291  1.2664 -0.9736
  161POPC   H3Y21534   2.220  -0.122   2.238  2.9899 -0.0583 -0.3019
  161POPC   C3421535   2.226   0.083   2.301  0.8983 -0.1701 -0.2763
  161POPC   H4X21536   2.140   0.151   2.282  0.1301 -0.7880  0.9136
  161POPC   H4Y21537   2.323   0.135   2.319  0.8676 -0.9616  2.7892
  161POPC   C3521538   2.200   0.025   2.447 -0.0354 -0.7560 -0.4336
  161POPC   H5X21539   2.284  -0.041   2.478 -0.0666 -1.4192 -1.7177
  161POPC   H5Y21540   2.104  -0.029   2.446 -1.9717  2.3988  0.0079
  161POPC   C3621541   2.174   0.144   2.545  0.1195  0.3733  0.6862
  161POPC   H6X21542   2.093   0.210   2.508 -1.1616 -1.8065 -0.6630
  161POPC   H6Y21543   2.266   0.195   2.582  0.5906  1.0185 -1.2751
  161POPC   C3721544   2.125   0.099   2.683  0.1599  0.0680  0.4634
  161POPC   H7X21545   2.194   0.040   2.748 -0.8089 -1.7049 -0.0435
  161POPC   H7Y21546   2.035   0.035   2.677 -0.5183  0.6435  3.1651
  161POPC   C3821547   2.086   0.223   2.763  0.0264 -0.1563  0.2616
  161POPC   H8X21548   2.027   0.287   2.694  0.7591 -2.6174 -2.8965
  161POPC   H8Y21549   2.178   0.281   2.784 -1.4670  1.9425  1.3105
  161POPC   C3921550   2.009   0.200   2.887  0.2485 -0.5071  0.1834
  161POPC   H9X21551   1.922   0.134   2.864 -1.1562  1.0994  0.6888
  161POPC   H9Y21552   1.955   0.292   2.916 -2.2370 -1.6362 -0.6087
  161POPC  C31021553   2.085   0.146   3.000 -0.6099  0.1055 -0.1295
  161POPC  H10X21554   2.040   0.188   3.093  0.3177 -0.6249  0.6600
  161POPC  H10Y21555   2.189   0.184   2.999 -1.1109  1.5801  0.1310
  161POPC  C31121556   2.079  -0.001   3.004 -0.6109  0.5108 -0.8025
  161POPC  H11X21557   2.152  -0.047   2.934  1.2580  0.0470  1.2995
  161POPC  H11Y21558   1.977  -0.040   2.987 -0.8811  0.8547 -0.0096
  161POPC  C31221559   2.118  -0.056   3.141 -0.0020  0.2486 -0.0962
  161POPC  H12X21560   2.036  -0.124   3.171 -0.6096  0.3561 -1.4369
  161POPC  H12Y21561   2.126   0.016   3.225 -1.0218 -0.6886  0.8298
  161POPC  C31321562   2.239  -0.151   3.133  0.0188 -0.8772 -0.2202
  161POPC  H13X21563   2.334  -0.094   3.118  0.3512 -0.5846  2.5781
  161POPC  H13Y21564   2.224  -0.226   3.052 -2.9473 -2.0978  1.3374
  161POPC  C31421565   2.263  -0.230   3.268 -0.4325 -0.1491 -0.1894
  161POPC  H14X21566   2.166  -0.277   3.293 -1.3326  0.3282 -2.5429
  161POPC  H14Y21567   2.285  -0.154   3.346  0.6088  3.2656 -3.5239
  161POPC  C31521568   2.370  -0.339   3.251  0.8939  0.2736  0.8082
  161POPC  H15X21569   2.453  -0.287   3.199 -0.7642  2.8164  0.4718
  161POPC  H15Y21570   2.325  -0.407   3.176  1.2286 -2.3004  2.8178
  161POPC  C31621571   2.420  -0.403   3.377 -0.1178  0.2950 -0.2969
  161POPC  H16X21572   2.520  -0.448   3.358 -0.2034  0.7016 -1.8316
  161POPC  H16Y21573   2.344  -0.477   3.409 -1.9323  2.1311 -0.1699
  161POPC  H16Z21574   2.424  -0.329   3.459 -1.8426 -0.2498  0.3289
  162POPC     N21575   0.878   3.277   1.987  0.3347 -0.0793 -0.5431
  162POPC   C1221576   0.792   3.281   2.109 -0.0973  0.0105 -0.4241
  162POPC  H12A21577   0.809   3.185   2.156  1.5253  0.6329  0.3602
  162POPC  H12B21578   0.688   3.287   2.080  0.4273  1.5073 -2.1451
  162POPC   C1321579   0.843   3.148   1.910 -0.3155 -0.5695  0.1317
  162POPC  H13A21580   0.750   3.140   1.856 -0.8675 -0.8227  1.0969
  162POPC  H13B21581   0.911   3.137   1.827 -3.5684 -2.7383 -2.4822
  162POPC  H13C21582   0.854   3.056   1.966  0.9600 -0.6885 -0.2761
  162POPC   C1421583   0.864   3.391   1.896  0.3099 -0.1115  0.0187
  162POPC  H14A21584   0.763   3.381   1.857 -0.9040 -1.0601  3.0855
  162POPC  H14B21585   0.869   3.485   1.949  4.0618 -0.2586  0.1631
  162POPC  H14C21586   0.932   3.386   1.812 -0.4248 -0.3705 -0.5763
  162POPC   C1521587   1.027   3.275   2.028 -0.5120  0.1568  0.2471
  162POPC  H15A21588   1.082   3.273   1.935 -2.3510  0.3355 -0.8921
  162POPC  H15B21589   1.041   3.182   2.080 -0.7796 -0.3366 -0.5428
  162POPC  H15C21590   1.063   3.360   2.085 -1.5069  0.0471  1.0544
  162POPC   C1121591   0.805   3.391   2.211  0.4464 -0.1333 -0.1596
  162POPC  H11A21592   0.911   3.411   2.238  0.0061 -0.6631  2.1878
  162POPC  H11B21593   0.745   3.365   2.301  0.9646 -0.1732  0.1795
  162POPC     P21594   0.794   3.650   2.146 -0.4851  0.1435 -0.2732
  162POPC   O1321595   0.680   3.744   2.146 -0.0372 -0.0559  0.1583
  162POPC   O1421596   0.902   3.662   2.050 -0.1227  0.1106  0.7137
  162POPC   O1221597   0.743   3.507   2.146  0.2397  0.0746 -0.1599
  162POPC   O1121598   0.860   3.669   2.286  0.9237  0.5097 -0.1780
  162POPC    C121599   0.924   3.788   2.310 -0.5514  0.4845  0.1640
  162POPC    HA21600   0.855   3.874   2.295 -2.6550 -0.9263  1.1725
  162POPC    HB21601   1.009   3.790   2.239 -0.7611 -2.4751 -0.2999
  162POPC    C221602   0.990   3.780   2.446  0.9913  0.1654 -0.5501
  162POPC    HS21603   1.064   3.698   2.432 -0.1589 -1.0025 -0.0723
  162POPC   O2121604   0.888   3.750   2.547 -0.0469 -0.3972 -0.1908
  162POPC   C2121605   0.904   3.629   2.597 -0.0725  0.8057 -0.3389
  162POPC   O2221606   0.983   3.545   2.567  0.2142  0.6081 -0.1509
  162POPC   C2221607   0.803   3.606   2.725 -0.4052 -0.1944 -0.0240
  162POPC   H2R21608   0.699   3.595   2.689 -1.0206  0.4802  1.4517
  162POPC   H2S21609   0.809   3.701   2.783 -0.4167 -0.6528  0.7477
  162POPC    C321610   1.066   3.898   2.498  0.9414  0.3223  0.2959
  162POPC    HX21611   0.987   3.975   2.511 -0.1711 -0.6312 -0.6821
  162POPC    HY21612   1.142   3.935   2.426  1.7902 -1.0529  0.4354
  162POPC   O3121613   1.126   3.871   2.622 -0.0326  0.4495  0.2789
  162POPC   C3121614   1.218   3.777   2.636 -0.1554  0.1680  0.3294
  162POPC   O3221615   1.278   3.724   2.551  0.1000  0.1302  0.3397
  162POPC   C3221616   1.231   3.744   2.795  0.3487 -0.3321  0.0624
  162POPC   H2X21617   1.127   3.718   2.825  0.6207 -1.0450  0.4020
  162POPC   H2Y21618   1.255   3.834   2.855  0.9445 -1.3559  1.4180
  162POPC   C2321619   0.859   3.491   2.812 -0.4940  0.9148 -0.1552
  162POPC   H3R21620   0.964   3.505   2.843  0.1547 -0.5919 -1.5136
  162POPC   H3S21621   0.861   3.393   2.760 -2.1784  0.4410  0.5884
  162POPC   C2421622   0.779   3.471   2.947  0.8206 -0.2226 -0.2600
  162POPC   H4R21623   0.787   3.554   3.020 -0.4125 -1.6269  1.5837
  162POPC   H4S21624   0.826   3.376   2.982  3.3005 -0.0466 -2.7569
  162POPC   C2521625   0.629   3.432   2.932 -0.1507  0.4588 -0.0187
  162POPC   H5R21626   0.572   3.521   2.898 -0.6585 -0.0691 -0.5937
  162POPC   H5S21627   0.596   3.400   3.033  0.1638  0.0281 -0.0463
  162POPC   C2621628   0.606   3.311   2.834  0.4289 -0.2059 -0.4588
  162POPC   H6R21629   0.664   3.228   2.880 -0.1371 -0.9883 -1.1265
  162POPC   H6S21630   0.655   3.338   2.738  1.6456 -1.2889 -0.1743
  162POPC   C2721631   0.459   3.275   2.814 -0.1031 -0.8499  0.3506
  162POPC   H7R21632   0.453   3.219   2.718  0.5874 -1.6045  0.7351
  162POPC   H7S21633   0.401   3.369   2.806 -0.6661 -1.2311 -0.1791
  162POPC   C2821634   0.405   3.167   2.917 -0.0146  0.1869 -0.8714
  162POPC   H8R21635   0.479   3.085   2.920 -1.8444 -1.5977 -2.1111
  162POPC   H8S21636   0.314   3.130   2.864 -0.3446 -1.9461  1.0159
  162POPC   C2921637   0.356   3.230   3.050 -0.2754  0.1138  0.6541
  162POPC   H9121638   0.260   3.283   3.047  0.9236  2.3937 -1.1552
  162POPC  C21021639   0.422   3.223   3.161  0.1158  0.1276 -0.0968
  162POPC  H10121640   0.372   3.258   3.252  1.2968  0.0733  0.5831
  162POPC  C21121641   0.551   3.147   3.182  0.8946 -0.0030 -0.6710
  162POPC  H11R21642   0.635   3.216   3.158  1.2953 -1.1094 -2.6854
  162POPC  H11S21643   0.562   3.063   3.110 -1.5339  0.1437 -1.3160
  162POPC  C21221644   0.554   3.106   3.333 -0.1013 -0.5098  0.1050
  162POPC  H12R21645   0.461   3.062   3.375  0.3887 -0.6378  1.0875
  162POPC  H12S21646   0.578   3.201   3.386  0.3456 -2.2720  3.2746
  162POPC  C21321647   0.690   3.030   3.366  0.2234 -0.0296  0.3925
  162POPC  H13R21648   0.785   3.073   3.327  0.2765 -0.3217  0.1977
  162POPC  H13S21649   0.684   2.922   3.340  4.0681 -0.3060 -0.0331
  162POPC  C21421650   0.707   3.038   3.521 -0.8438  0.1283 -0.3848
  162POPC  H14R21651   0.658   2.953   3.573 -0.3419 -0.3531 -0.6923
  162POPC  H14S21652   0.665   3.136   3.553  0.7234  1.7392 -2.9243
  162POPC  C21521653   0.853   3.014   3.555  0.3605  0.1956 -0.7417
  162POPC  H15R21654   0.929   3.089   3.523  0.7986 -0.5484 -1.4863
  162POPC  H15S21655   0.894   2.921   3.510  0.3166 -0.8355  1.2404
  162POPC  C21621656   0.870   3.009   3.704 -0.6255  0.4614  0.0207
  162POPC  H16R21657   0.800   2.930   3.739 -2.7226  2.1809 -0.1096
  162POPC  H16S21658   0.823   3.101   3.744  0.3906  1.3220 -0.6907
  162POPC  C21721659   1.019   2.999   3.741  0.2970  0.3671 -0.1291
  162POPC  H17R21660   1.072   3.054   3.660 -1.2945 -1.5588 -2.6478
  162POPC  H17S21661   1.048   2.893   3.727 -0.3709  0.3244 -1.3380
  162POPC  C21821662   1.068   3.054   3.875 -0.0633  0.4046 -0.0359
  162POPC  H18R21663   0.987   3.037   3.949  0.1669  0.7361  0.2989
  162POPC  H18S21664   1.081   3.164   3.864  1.4343  0.3777  1.2075
  162POPC  H18T21665   1.167   3.013   3.901 -0.9890 -2.0875 -0.2273
  162POPC   C3321666   1.327   3.631   2.828 -0.5167  0.4305  0.0479
  162POPC   H3X21667   1.405   3.632   2.749 -2.0130 -3.0057 -1.6834
  162POPC   H3Y21668   1.277   3.533   2.809  1.9898 -0.6614 -1.5176
  162POPC   C3421669   1.404   3.644   2.967 -0.1140  0.6786  0.0961
  162POPC   H4X21670   1.449   3.744   2.982 -1.2036  0.9799  1.5533
  162POPC   H4Y21671   1.493   3.577   2.963 -0.9741 -0.5310  0.6376
  162POPC   C3521672   1.309   3.618   3.083 -0.0003 -0.2650 -0.0833
  162POPC   H5X21673   1.217   3.679   3.068 -0.9283 -0.9536  2.2835
  162POPC   H5Y21674   1.357   3.651   3.177 -1.6717  1.2268  0.3065
  162POPC   C3621675   1.256   3.467   3.110 -0.4356 -0.9978 -0.4617
  162POPC   H6X21676   1.344   3.405   3.136 -1.7705 -2.5312  0.5314
  162POPC   H6Y21677   1.206   3.428   3.019 -0.3081 -2.5639  0.1216
  162POPC   C3721678   1.158   3.456   3.226  0.4129 -0.4100  0.5221
  162POPC   H7X21679   1.218   3.472   3.318 -1.4334  0.7151  1.5924
  162POPC   H7Y21680   1.115   3.354   3.223  0.9339 -0.6975  2.2778
  162POPC   C3821681   1.036   3.543   3.230  0.2428 -0.7203  0.0232
  162POPC   H8X21682   0.978   3.537   3.135  0.5438 -1.7915 -0.1038
  162POPC   H8Y21683   1.068   3.645   3.262 -0.3083 -0.5947  0.1841
  162POPC   C3921684   0.927   3.495   3.330  0.5414 -0.1287  0.5265
  162POPC   H9X21685   0.886   3.399   3.289  1.6647  0.0865 -1.1926
  162POPC   H9Y21686   0.844   3.569   3.326  1.9502  1.5418 -3.9431
  162POPC  C31021687   0.973   3.471   3.469  0.1701  0.5402 -0.7990
  162POPC  H10X21688   1.017   3.567   3.503  1.1447 -0.7307  1.8100
  162POPC  H10Y21689   1.041   3.384   3.469 -0.4199  0.0157  1.2795
  162POPC  C31121690   0.868   3.444   3.581 -0.1863  0.3183 -0.2049
  162POPC  H11X21691   0.828   3.344   3.557  2.7274 -0.7652 -1.0399
  162POPC  H11Y21692   0.790   3.523   3.574 -0.4860 -0.0363 -0.9672
  162POPC  C31221693   0.925   3.449   3.725  0.0352  0.0168  0.2186
  162POPC  H12X21694   0.991   3.538   3.730  0.4828  0.0607 -3.4396
  162POPC  H12Y21695   0.981   3.355   3.745 -0.3952 -0.0135  1.3655
  162POPC  C31321696   0.812   3.449   3.826  0.2894 -0.8291 -0.6444
  162POPC  H13X21697   0.867   3.451   3.923 -0.8125  0.8189 -0.0083
  162POPC  H13Y21698   0.766   3.349   3.812  1.2733 -0.9495 -3.6144
  162POPC  C31421699   0.698   3.547   3.818  0.6944 -0.5589 -0.2972
  162POPC  H14X21700   0.657   3.534   3.715 -1.0466  0.7470  0.1853
  162POPC  H14Y21701   0.733   3.653   3.811  0.4806 -0.3542  1.3910
  162POPC  C31521702   0.589   3.520   3.922 -0.3536  0.2423 -0.4133
  162POPC  H15X21703   0.631   3.545   4.022  0.0821 -0.3963 -0.4331
  162POPC  H15Y21704   0.560   3.413   3.930 -1.5042  0.4825 -1.1610
  162POPC  C31621705   0.464   3.602   3.898  0.3436 -0.3707  0.8039
  162POPC  H16X21706   0.387   3.592   3.978  1.1707  1.4493  1.8644
  162POPC  H16Y21707   0.419   3.575   3.800  1.9833  0.2240 -0.1561
  162POPC  H16Z21708   0.499   3.707   3.892  0.2541 -0.3933 -0.6507
  163POPC     N21709   1.712   4.363   2.064 -0.2928  0.8999  0.2759
  163POPC   C1221710   1.714   4.418   2.205 -0.1179  0.7042  0.7523
  163POPC  H12A21711   1.620   4.391   2.249  0.0663 -0.5391  0.4110
  163POPC  H12B21712   1.731   4.524   2.220 -0.4152  0.6445  1.5283
  163POPC   C1321713   1.732   4.209   2.062  0.5806 -0.2013  0.2566
  163POPC  H13A21714   1.669   4.173   2.142 -0.6985  2.2095  0.4143
  163POPC  H13B21715   1.701   4.162   1.970 -0.9435  0.0171  0.6252
  163POPC  H13C21716   1.831   4.170   2.081  0.4512 -0.7223 -0.1222
  163POPC   C1421717   1.576   4.399   2.013 -0.0875  0.0016 -0.3313
  163POPC  H14A21718   1.556   4.504   2.025  1.8116  0.3459 -0.0277
  163POPC  H14B21719   1.581   4.379   1.907 -0.1605 -0.1923 -0.3000
  163POPC  H14C21720   1.500   4.343   2.066  1.3724 -1.2506  0.5205
  163POPC   C1521721   1.814   4.429   1.979  0.3041  0.3357 -0.4319
  163POPC  H15A21722   1.906   4.405   2.031  1.1097  3.6018 -0.1544
  163POPC  H15B21723   1.797   4.535   1.977 -1.3559  0.0987 -0.1957
  163POPC  H15C21724   1.818   4.383   1.881  0.7805  1.4930 -0.9782
  163POPC   C1121725   1.835   4.373   2.296  0.0104 -0.2053 -0.0135
  163POPC  H11A21726   1.834   4.263   2.284 -0.4756 -0.0535 -1.6962
  163POPC  H11B21727   1.805   4.396   2.400 -0.4172 -2.0937  0.3252
  163POPC     P21728   2.011   4.555   2.337 -0.0678  0.0172  0.2487
  163POPC   O1321729   1.897   4.654   2.311  0.0920 -0.3138 -0.6994
  163POPC   O1421730   2.149   4.587   2.296 -0.2576  0.1031  0.0620
  163POPC   O1221731   1.966   4.426   2.262 -0.3641 -0.6957  0.3602
  163POPC   O1121732   2.008   4.505   2.483 -0.5235 -0.4749  0.0590
  163POPC    C121733   2.014   4.588   2.598  0.1342 -0.8507  0.3729
  163POPC    HA21734   1.933   4.664   2.610  2.6062  1.7982  1.4370
  163POPC    HB21735   2.112   4.640   2.595 -0.4405  0.2643  0.3766
  163POPC    C221736   2.004   4.503   2.721 -0.5062 -0.2895  0.4042
  163POPC    HS21737   2.103   4.453   2.727 -0.5114 -0.4397 -0.6413
  163POPC   O2121738   1.889   4.412   2.711  0.0417  0.6712  0.7307
  163POPC   C2121739   1.922   4.281   2.733  0.4171 -0.2907 -0.1039
  163POPC   O2221740   2.031   4.238   2.750  0.5674 -0.2053  0.0951
  163POPC   C2221741   1.797   4.197   2.730 -0.0578 -0.5150 -0.3628
  163POPC   H2R21742   1.809   4.124   2.648  0.3389  1.0757 -1.7776
  163POPC   H2S21743   1.718   4.267   2.699  1.1927  1.0350 -0.1845
  163POPC    C321744   1.995   4.575   2.858 -0.5982 -0.3165 -0.8119
  163POPC    HX21745   1.907   4.641   2.838  1.3321  2.5013 -0.6388
  163POPC    HY21746   2.081   4.644   2.869 -1.1628  0.0421  2.0910
  163POPC   O3121747   1.975   4.493   2.973 -0.7624  0.5798  0.3157
  163POPC   C3121748   2.086   4.433   3.019 -0.7189  0.7358  0.7463
  163POPC   O3221749   2.196   4.436   2.965  0.3317 -0.3488 -0.0255
  163POPC   C3221750   2.063   4.342   3.145  0.0119 -0.0778 -0.2069
  163POPC   H2X21751   2.133   4.257   3.136  0.7175  0.5095 -0.4128
  163POPC   H2Y21752   1.962   4.298   3.132 -1.2081  1.6158  2.5817
  163POPC   C2321753   1.766   4.109   2.860 -0.3621 -0.3314  0.4699
  163POPC   H3R21754   1.865   4.085   2.904 -0.1704 -3.5812 -1.3646
  163POPC   H3S21755   1.720   4.012   2.829 -1.3570 -0.0825  1.1399
  163POPC   C2421756   1.676   4.191   2.953  0.8724 -0.5636 -0.0768
  163POPC   H4R21757   1.589   4.236   2.899  1.6650  1.2730  0.0794
  163POPC   H4S21758   1.729   4.283   2.987  1.9138 -1.0132 -0.4650
  163POPC   C2521759   1.625   4.112   3.081 -0.7008  0.4102 -0.3328
  163POPC   H5R21760   1.713   4.055   3.118 -1.4648 -1.3027 -1.0846
  163POPC   H5S21761   1.546   4.040   3.052 -1.2054 -0.1474  2.1465
  163POPC   C2621762   1.562   4.205   3.192 -0.2462  0.0761 -0.0398
  163POPC   H6R21763   1.495   4.276   3.139 -1.4801 -1.3003 -0.4145
  163POPC   H6S21764   1.640   4.269   3.236 -0.3000 -0.0147  0.1879
  163POPC   C2721765   1.477   4.131   3.287  0.7237 -0.4325  0.0311
  163POPC   H7R21766   1.542   4.076   3.358 -0.0863  0.3254  1.4122
  163POPC   H7S21767   1.413   4.060   3.231  0.4906  0.2341 -0.5598
  163POPC   C2821768   1.381   4.215   3.382 -0.7896 -0.2042  0.7577
  163POPC   H8R21769   1.290   4.172   3.428  0.1708 -1.9301  1.1363
  163POPC   H8S21770   1.339   4.279   3.301 -1.4974  0.1844  1.4200
  163POPC   C2921771   1.465   4.293   3.480 -0.5966 -0.4069 -0.0604
  163POPC   H9121772   1.506   4.381   3.428 -0.7864  0.5105  1.2963
  163POPC  C21021773   1.492   4.272   3.613  0.2267 -0.2686  0.2776
  163POPC  H10121774   1.553   4.336   3.679  1.8352 -1.7115  0.2617
  163POPC  C21121775   1.434   4.152   3.683 -0.4753  0.0112  0.5954
  163POPC  H11R21776   1.501   4.124   3.767  0.2896  1.6063  0.5491
  163POPC  H11S21777   1.422   4.070   3.609 -0.6847 -0.4176  1.0917
  163POPC  C21221778   1.291   4.183   3.744 -0.6810  0.2079  0.2907
  163POPC  H12R21779   1.235   4.087   3.750 -2.4545  0.9089 -2.6686
  163POPC  H12S21780   1.244   4.237   3.659 -1.5341  0.3874  0.8693
  163POPC  C21321781   1.303   4.269   3.866 -0.1257 -0.7621 -0.2874
  163POPC  H13R21782   1.367   4.358   3.847 -0.2714 -0.4829  0.5042
  163POPC  H13S21783   1.342   4.226   3.961  0.7793  0.0211 -0.2809
  163POPC  C21421784   1.162   4.321   3.899 -0.0797  0.5799  0.5353
  163POPC  H14R21785   1.092   4.235   3.893  0.5675  0.0071  0.9957
  163POPC  H14S21786   1.133   4.398   3.824 -1.3933  1.1071  1.5619
  163POPC  C21521787   1.163   4.404   4.030  0.1783  0.0379  0.3487
  163POPC  H15R21788   1.234   4.487   4.006 -0.9968  0.7803 -0.7064
  163POPC  H15S21789   1.196   4.343   4.117 -2.3593 -0.2541  1.1843
  163POPC  C21621790   1.020   4.455   4.063  0.2079  0.3294 -0.0387
  163POPC  H16R21791   1.036   4.499   4.164  3.1189  0.4553 -0.4576
  163POPC  H16S21792   0.958   4.368   4.095  0.6399  0.3615  0.9171
  163POPC  C21721793   0.956   4.542   3.952  0.3740  0.6352  0.5879
  163POPC  H17R21794   0.929   4.472   3.870  0.6176  1.2713 -0.0384
  163POPC  H17S21795   1.029   4.620   3.923  0.2808  1.1644  1.7115
  163POPC  C21821796   0.832   4.616   4.004  0.1209 -0.5321  0.0473
  163POPC  H18R21797   0.758   4.535   4.023 -0.7261  0.6286  1.9360
  163POPC  H18S21798   0.790   4.681   3.923 -0.7777 -0.8987  0.2045
  163POPC  H18T21799   0.847   4.685   4.089 -3.1580  1.9484 -1.1509
  163POPC   C3321800   2.087   4.397   3.281 -0.2628 -0.1552 -0.3529
  163POPC   H3X21801   2.024   4.487   3.298  1.4992  1.1878 -0.7150
  163POPC   H3Y21802   2.190   4.435   3.299 -0.4113 -0.3373  1.0014
  163POPC   C3421803   2.050   4.301   3.391 -0.4446 -0.4509  0.0839
  163POPC   H4X21804   2.091   4.328   3.491  0.2406  1.6418 -0.6961
  163POPC   H4Y21805   2.093   4.204   3.358  1.9045 -0.6362  3.2414
  163POPC   C3521806   1.900   4.292   3.410  0.7939  0.4325  0.4030
  163POPC   H5X21807   1.865   4.238   3.319 -1.5187  2.1372  0.1983
  163POPC   H5Y21808   1.853   4.393   3.416 -2.1922 -0.9406  2.3405
  163POPC   C3621809   1.872   4.210   3.533  0.1467 -0.1583  0.4932
  163POPC   H6X21810   1.763   4.226   3.547 -0.3473 -1.6351 -1.2894
  163POPC   H6Y21811   1.924   4.253   3.621 -1.0246 -0.8180  1.5566
  163POPC   C3721812   1.897   4.059   3.507 -0.1184 -0.3443 -0.1501
  163POPC   H7X21813   1.993   4.045   3.452  0.6129 -0.7223  1.1759
  163POPC   H7Y21814   1.828   4.031   3.425 -0.0828 -0.6235 -0.0883
  163POPC   C3821815   1.891   3.959   3.613 -0.2013  0.3687  0.4370
  163POPC   H8X21816   1.956   3.990   3.697 -0.0597  0.2543  0.3703
  163POPC   H8Y21817   1.938   3.861   3.590 -1.5606 -0.3943  0.7887
  163POPC   C3921818   1.748   3.915   3.653  0.3501  0.7403 -0.6014
  163POPC   H9X21819   1.696   3.890   3.558 -2.8720 -0.6562  1.3584
  163POPC   H9Y21820   1.699   4.004   3.697 -1.3220 -0.6326  0.4251
  163POPC  C31021821   1.744   3.801   3.757 -0.3263 -0.2895 -0.4358
  163POPC  H10X21822   1.802   3.717   3.713 -0.5832 -0.4784 -0.4135
  163POPC  H10Y21823   1.640   3.764   3.766 -0.3348  0.2868  3.7925
  163POPC  C31121824   1.786   3.851   3.893 -0.7073 -0.0538 -0.1374
  163POPC  H11X21825   1.731   3.942   3.925 -1.6812 -1.0178  1.0471
  163POPC  H11Y21826   1.894   3.875   3.883  0.0895 -1.9032  2.7346
  163POPC  C31221827   1.759   3.737   3.990 -0.3695 -0.3460 -0.0430
  163POPC  H12X21828   1.763   3.639   3.937 -2.4005 -0.8001  0.5671
  163POPC  H12Y21829   1.648   3.736   3.992 -0.4122 -1.4236 -1.6259
  163POPC  C31321830   1.831   3.741   4.125  0.6285 -0.2834 -0.6413
  163POPC  H13X21831   1.810   3.834   4.182  0.9348 -0.5782 -0.0336
  163POPC  H13Y21832   1.941   3.743   4.106  0.5546  2.4059 -1.2356
  163POPC  C31421833   1.815   3.623   4.220  0.3186  0.6633 -0.0379
  163POPC  H14X21834   1.851   3.528   4.176 -0.3214  0.5951 -0.4226
  163POPC  H14Y21835   1.705   3.610   4.229  0.5360 -0.9260  0.6954
  163POPC  C31521836   1.879   3.662   4.359  0.1286  0.2666  0.0911
  163POPC  H15X21837   1.824   3.753   4.391  0.3320 -0.9130  4.4363
  163POPC  H15Y21838   1.988   3.671   4.341  0.3103 -0.7233  0.6374
  163POPC  C31621839   1.863   3.553   4.468 -0.1254 -0.1828  0.6682
  163POPC  H16X21840   1.893   3.587   4.569  3.2450 -0.5734 -0.0688
  163POPC  H16Y21841   1.922   3.465   4.434 -0.9894 -0.9839  1.1825
  163POPC  H16Z21842   1.759   3.513   4.469 -0.0722 -0.3184  0.9473
  164POPC     N21843   7.231   7.953   2.105 -0.5948 -0.1516  0.5206
  164POPC   C1221844   7.341   7.845   2.122  1.0739 -0.8873 -0.0273
  164POPC  H12A21845   7.384   7.814   2.027  1.4339 -3.4161  0.8948
  164POPC  H12B21846   7.286   7.758   2.153 -0.5547  0.0204 -0.2893
  164POPC   C1321847   7.128   7.906   2.006  0.2304 -0.2735 -0.3473
  164POPC  H13A21848   7.050   7.980   1.998 -0.9207 -1.5201 -1.0155
  164POPC  H13B21849   7.175   7.883   1.912 -0.2206 -1.1439 -0.3689
  164POPC  H13C21850   7.087   7.813   2.045 -0.1826  0.9086  2.2380
  164POPC   C1421851   7.168   7.989   2.235  0.2466  0.1219 -0.4021
  164POPC  H14A21852   7.080   8.052   2.226  0.6175  0.5170 -1.4827
  164POPC  H14B21853   7.139   7.896   2.281  1.4501  0.3284  0.8347
  164POPC  H14C21854   7.240   8.035   2.302  1.4786  0.1508 -1.7135
  164POPC   C1521855   7.287   8.074   2.038 -0.8035  0.4644  0.2694
  164POPC  H15A21856   7.225   8.162   2.046 -1.2342 -0.0013  4.6746
  164POPC  H15B21857   7.323   8.058   1.937  0.8517  0.3479  0.8523
  164POPC  H15C21858   7.380   8.098   2.087 -0.3363 -1.3934  0.3875
  164POPC   C1121859   7.457   7.880   2.216 -1.0724 -0.7994 -0.2797
  164POPC  H11A21860   7.514   7.789   2.244  1.7136  1.2735  1.2754
  164POPC  H11B21861   7.417   7.923   2.310  0.4591 -0.2521  0.1457
  164POPC     P21862   7.672   7.950   2.060 -0.0891 -0.0921  0.0987
  164POPC   O1321863   7.736   8.076   2.039 -0.2016  0.1254 -0.3485
  164POPC   O1421864   7.633   7.866   1.943 -0.5759 -0.0540 -0.0613
  164POPC   O1221865   7.544   7.979   2.151 -0.5019  0.3817 -0.2310
  164POPC   O1121866   7.769   7.859   2.145  0.8831 -0.2469 -0.1488
  164POPC    C121867   7.886   7.895   2.203 -1.3822 -1.0495 -0.3532
  164POPC    HA21868   7.901   8.004   2.186  0.4498 -1.6780 -3.3769
  164POPC    HB21869   7.979   7.856   2.156  0.0647 -1.1535  2.3525
  164POPC    C221870   7.892   7.850   2.356 -0.0826  1.0154 -0.2683
  164POPC    HS21871   7.980   7.898   2.404  0.9793 -0.5719 -0.5467
  164POPC   O2121872   7.904   7.702   2.364 -0.3453  0.5284 -0.4146
  164POPC   C2121873   8.029   7.657   2.348 -0.1928 -0.7966 -0.7775
  164POPC   O2221874   8.119   7.726   2.303 -0.2168 -0.0832  0.0454
  164POPC   C2221875   8.047   7.515   2.394 -0.4323  0.7636  0.3928
  164POPC   H2R21876   7.962   7.484   2.459  0.0979 -0.7721  0.4019
  164POPC   H2S21877   8.054   7.453   2.302 -0.7155  1.4970 -0.1273
  164POPC    C321878   7.770   7.888   2.430  0.0287 -0.3571  0.2803
  164POPC    HX21879   7.687   7.822   2.396  1.7572 -3.5323  1.7940
  164POPC    HY21880   7.741   7.992   2.405  0.9951 -0.1960 -0.1906
  164POPC   O3121881   7.781   7.883   2.573  0.7886 -0.2684 -0.4654
  164POPC   C3121882   7.656   7.881   2.635 -0.7581 -1.2527 -0.1583
  164POPC   O3221883   7.549   7.892   2.580  0.3168  0.4150  0.3646
  164POPC   C3221884   7.669   7.864   2.789 -0.0278 -0.2310 -0.8218
  164POPC   H2X21885   7.730   7.939   2.843 -2.4057 -0.1670  2.0214
  164POPC   H2Y21886   7.729   7.771   2.797 -0.4636 -0.3562  2.2458
  164POPC   C2321887   8.172   7.482   2.477  0.2552 -0.3872  0.4348
  164POPC   H3R21888   8.266   7.499   2.419  0.4655 -0.3205  0.7913
  164POPC   H3S21889   8.170   7.374   2.501 -0.6133 -0.2035  1.2326
  164POPC   C2421890   8.176   7.541   2.616  0.2542  0.1272 -0.4838
  164POPC   H4R21891   8.079   7.546   2.670 -0.5853  0.4722 -1.9527
  164POPC   H4S21892   8.210   7.645   2.599 -0.6616  0.2226 -1.9773
  164POPC   C2521893   8.292   7.475   2.695  0.3533 -0.2436 -0.2946
  164POPC   H5R21894   8.387   7.515   2.654  1.1015  0.8121  2.2692
  164POPC   H5S21895   8.274   7.366   2.681 -0.9472 -0.1616  0.5653
  164POPC   C2621896   8.286   7.523   2.842  0.7475  0.3873 -0.2506
  164POPC   H6R21897   8.193   7.482   2.889  1.6979 -0.2854  1.1024
  164POPC   H6S21898   8.309   7.631   2.846 -2.5542  1.2509 -1.2603
  164POPC   C2721899   8.394   7.449   2.914 -0.3487 -0.9859  1.1196
  164POPC   H7R21900   8.488   7.469   2.858  0.7264  1.9214  3.6538
  164POPC   H7S21901   8.387   7.338   2.914  1.7192 -1.1479  1.3869
  164POPC   C2821902   8.413   7.485   3.068 -0.2576 -0.1475 -0.4323
  164POPC   H8R21903   8.488   7.410   3.103  0.2284 -0.7411 -2.6059
  164POPC   H8S21904   8.316   7.470   3.120  1.7073 -0.7238  3.4649
  164POPC   C2921905   8.453   7.622   3.104 -0.4306  0.2267 -0.5110
  164POPC   H9121906   8.420   7.692   3.025  0.0682  1.4636  0.3447
  164POPC  C21021907   8.550   7.661   3.191  0.0820  0.4984  0.0320
  164POPC  H10121908   8.578   7.767   3.202  2.6706 -0.1116  0.0298
  164POPC  C21121909   8.626   7.571   3.290 -0.2504  0.1049 -0.1779
  164POPC  H11R21910   8.711   7.616   3.345 -0.7055 -0.8010  1.3271
  164POPC  H11S21911   8.664   7.489   3.225 -1.4724  0.8706 -1.9684
  164POPC  C21221912   8.529   7.500   3.392  0.1490  0.1099  0.4515
  164POPC  H12R21913   8.579   7.411   3.436  1.6138  2.0538  2.9904
  164POPC  H12S21914   8.438   7.464   3.339  1.2789 -0.9603 -0.8259
  164POPC  C21321915   8.503   7.583   3.518  0.3228  0.0312  0.0075
  164POPC  H13R21916   8.476   7.685   3.484  1.9533  0.3392 -0.4683
  164POPC  H13S21917   8.601   7.592   3.569 -0.1248  0.4742  0.8133
  164POPC  C21421918   8.394   7.529   3.616  0.3958  0.1891 -0.4525
  164POPC  H14R21919   8.404   7.418   3.624  0.9331  0.1144 -1.9410
  164POPC  H14S21920   8.295   7.547   3.570  0.3038 -0.1407 -0.3921
  164POPC  C21521921   8.405   7.599   3.756  1.0975 -0.1754 -0.0169
  164POPC  H15R21922   8.419   7.708   3.738 -0.3954  0.5721  2.8021
  164POPC  H15S21923   8.490   7.567   3.822  0.3274  1.1279  1.6883
  164POPC  C21621924   8.278   7.579   3.845  0.7697 -0.0697 -0.2668
  164POPC  H16R21925   8.269   7.472   3.874  0.8443  0.0459  0.1894
  164POPC  H16S21926   8.188   7.605   3.786  0.0581 -0.8124  0.4705
  164POPC  C21721927   8.287   7.659   3.974  1.0089  0.1022  0.1413
  164POPC  H17R21928   8.273   7.767   3.950  0.3639 -0.3488 -1.6039
  164POPC  H17S21929   8.385   7.635   4.022 -0.2957 -1.6544  2.0757
  164POPC  C21821930   8.173   7.627   4.072  0.3883 -0.1668  0.0802
  164POPC  H18R21931   8.169   7.692   4.162  0.7070  1.1033 -0.7977
  164POPC  H18S21932   8.176   7.520   4.104  0.8414 -0.2305 -0.1745
  164POPC  H18T21933   8.076   7.661   4.029 -0.7568 -0.9469  1.8876
  164POPC   C3321934   7.528   7.848   2.846 -0.1919 -0.0403 -0.4259
  164POPC   H3X21935   7.545   7.817   2.952  0.1077  0.6723 -0.2597
  164POPC   H3Y21936   7.473   7.763   2.800 -1.0474  0.1057  0.2930
  164POPC   C3421937   7.444   7.978   2.852  0.2334  0.4822 -0.0519
  164POPC   H4X21938   7.412   8.014   2.752  0.8143  1.1145 -0.0116
  164POPC   H4Y21939   7.513   8.056   2.888  2.4371 -0.5966 -1.7208
  164POPC   C3521940   7.323   7.970   2.950 -0.6308 -0.3421 -0.0804
  164POPC   H5X21941   7.273   8.069   2.948 -0.8072 -0.4356 -0.3638
  164POPC   H5Y21942   7.364   7.960   3.053  2.9013  0.1293 -1.2906
  164POPC   C3621943   7.223   7.857   2.921  0.1450 -0.2741  1.1256
  164POPC   H6X21944   7.270   7.762   2.889  0.3134  0.8817 -2.4690
  164POPC   H6Y21945   7.152   7.886   2.841 -0.4566 -1.4631  1.2158
  164POPC   C3721946   7.126   7.830   3.040  0.5588  0.1769  0.3443
  164POPC   H7X21947   7.029   7.805   2.992  0.3671  1.7544 -0.1167
  164POPC   H7Y21948   7.102   7.923   3.095  0.5891 -1.0860  2.6510
  164POPC   C3821949   7.169   7.715   3.138 -0.7007  0.2112 -0.4161
  164POPC   H8X21950   7.226   7.641   3.077 -1.6583 -0.0233 -1.0493
  164POPC   H8Y21951   7.079   7.661   3.174 -0.1922  0.8588  1.9955
  164POPC   C3921952   7.255   7.766   3.254  0.3406 -0.0586 -0.5026
  164POPC   H9X21953   7.205   7.857   3.293  0.3456 -1.0408  1.9507
  164POPC   H9Y21954   7.358   7.798   3.226 -0.1451  1.1791 -0.9830
  164POPC  C31021955   7.288   7.664   3.363  0.5883 -0.6087 -0.4360
  164POPC  H10X21956   7.310   7.566   3.315 -0.7300 -1.8318  1.3170
  164POPC  H10Y21957   7.192   7.654   3.418  1.2020  1.0419  1.0550
  164POPC  C31121958   7.408   7.702   3.453 -0.0024  0.1784  0.2542
  164POPC  H11X21959   7.505   7.684   3.402 -0.3492 -3.7739  0.6929
  164POPC  H11Y21960   7.410   7.647   3.550 -0.0059 -2.6728 -1.2512
  164POPC  C31221961   7.386   7.845   3.521 -0.2974 -0.8299  0.1150
  164POPC  H12X21962   7.286   7.831   3.567 -0.2062  0.4840  0.7812
  164POPC  H12Y21963   7.376   7.922   3.442 -0.4282 -0.2187  0.7159
  164POPC  C31321964   7.479   7.900   3.630 -0.1256 -0.3419  0.5735
  164POPC  H13X21965   7.585   7.881   3.605 -0.1851 -0.6690  0.5620
  164POPC  H13Y21966   7.469   7.832   3.718 -1.4179 -0.4661  0.3602
  164POPC  C31421967   7.443   8.047   3.668  0.4582 -0.6624  0.3834
  164POPC  H14X21968   7.342   8.058   3.712  0.0354 -1.0348 -0.4652
  164POPC  H14Y21969   7.446   8.114   3.579  3.5921 -0.8186  0.2545
  164POPC  C31521970   7.543   8.104   3.774  0.3956 -0.1899  0.3736
  164POPC  H15X21971   7.564   8.013   3.834  1.2096  0.5415  1.2396
  164POPC  H15Y21972   7.491   8.182   3.834  1.3981  1.8397 -1.2802
  164POPC  C31621973   7.677   8.153   3.724  0.2314 -0.3845  0.5451
  164POPC  H16X21974   7.728   8.078   3.660 -0.4057 -2.1610  2.0180
  164POPC  H16Y21975   7.747   8.169   3.809 -0.9125  3.0679  1.0145
  164POPC  H16Z21976   7.674   8.253   3.675 -1.2509 -0.3734  0.6168
  165POPC     N21977   2.959   6.079   2.369  0.6511 -0.5438  1.0436
  165POPC   C1221978   2.923   5.931   2.378 -0.2011 -0.0304  0.1153
  165POPC  H12A21979   2.824   5.926   2.420 -0.4492  1.9088 -0.1848
  165POPC  H12B21980   2.988   5.879   2.447 -1.6398  0.2746  1.7691
  165POPC   C1321981   2.858   6.151   2.285  0.0910 -0.2455 -0.9445
  165POPC  H13A21982   2.767   6.168   2.339 -0.2354  0.3144 -1.6529
  165POPC  H13B21983   2.890   6.250   2.257  0.4279 -0.3298 -0.8624
  165POPC  H13C21984   2.836   6.082   2.204  0.9631  0.1318 -1.5218
  165POPC   C1421985   2.978   6.135   2.505 -0.0055  0.3376 -0.3199
  165POPC  H14A21986   2.985   6.243   2.500 -0.0307  0.3813  0.4000
  165POPC  H14B21987   2.898   6.109   2.573  1.1083 -0.2873  0.8035
  165POPC  H14C21988   3.076   6.103   2.536  0.8478  2.1811 -0.9639
  165POPC   C1521989   3.090   6.090   2.300 -0.0865 -0.8362  0.0303
  165POPC  H15A21990   3.162   6.021   2.340 -0.8198 -1.6969 -0.0917
  165POPC  H15B21991   3.134   6.184   2.330 -1.0199 -0.5612  0.5780
  165POPC  H15C21992   3.084   6.077   2.193 -1.4944 -0.1972 -0.0022
  165POPC   C1121993   2.922   5.846   2.243  1.1343  0.0852 -0.0709
  165POPC  H11A21994   2.938   5.738   2.265  1.4066 -0.0193 -0.7506
  165POPC  H11B21995   3.020   5.874   2.199  0.6843  0.7965 -0.6408
  165POPC     P21996   2.676   5.790   2.176 -0.4180 -0.1627 -0.6437
  165POPC   O1321997   2.703   5.644   2.158 -0.4525  0.2704  0.7276
  165POPC   O1421998   2.577   5.846   2.086  0.0104 -0.0885 -0.1950
  165POPC   O1221999   2.808   5.868   2.156  0.1581 -0.4713  0.0023
  165POPC   O1122000   2.654   5.819   2.335  0.9129  0.1025 -0.2720
  165POPC    C122001   2.523   5.821   2.390  0.2662 -0.4391 -0.0100
  165POPC    HA22002   2.468   5.730   2.358 -0.4777  0.6199 -1.8870
  165POPC    HB22003   2.464   5.908   2.355 -0.0136 -0.2420  0.9311
  165POPC    C222004   2.533   5.802   2.546  0.1824  0.3487  0.8996
  165POPC    HS22005   2.571   5.900   2.582 -1.9415  0.6911  2.3899
  165POPC   O2122006   2.627   5.696   2.578 -0.0165  0.3049 -0.1359
  165POPC   C2122007   2.744   5.730   2.631 -1.5009 -0.1320 -0.6368
  165POPC   O2222008   2.798   5.837   2.624 -0.5544 -0.2701  0.1723
  165POPC   C2222009   2.811   5.614   2.698 -0.5197 -0.3217  0.4215
  165POPC   H2R22010   2.916   5.650   2.712  0.0717 -2.0348  0.6849
  165POPC   H2S22011   2.813   5.528   2.628 -0.5796  0.9361 -1.1807
  165POPC    C322012   2.390   5.773   2.607 -0.2018 -0.0963 -0.5544
  165POPC    HX22013   2.376   5.663   2.606 -2.3471  0.0454  1.9954
  165POPC    HY22014   2.311   5.824   2.548 -0.4680  0.9355  0.6768
  165POPC   O3122015   2.400   5.806   2.743  0.4560  0.5948 -0.1212
  165POPC   C3122016   2.297   5.770   2.820 -0.6081 -0.5112 -0.2357
  165POPC   O3222017   2.200   5.711   2.780 -0.3713 -0.2843  0.3053
  165POPC   C3222018   2.332   5.816   2.963 -0.0574 -0.0801 -0.7573
  165POPC   H2X22019   2.331   5.927   2.967  1.2525 -0.0708  2.1177
  165POPC   H2Y22020   2.438   5.797   2.987 -0.1991 -1.7942 -1.3768
  165POPC   C2322021   2.743   5.580   2.831 -0.2793  0.5350  0.6713
  165POPC   H3R22022   2.790   5.487   2.869  1.2426  1.2038  0.5134
  165POPC   H3S22023   2.633   5.569   2.815 -0.3556 -1.2287  2.1544
  165POPC   C2422024   2.777   5.690   2.935  0.3741 -0.4396  0.1005
  165POPC   H4R22025   2.737   5.791   2.911  1.8926  0.4348  1.1137
  165POPC   H4S22026   2.886   5.696   2.955  0.6195  0.1512 -1.3015
  165POPC   C2522027   2.708   5.657   3.069 -0.1539 -0.3016 -0.0587
  165POPC   H5R22028   2.599   5.637   3.058 -1.4315  2.5801  4.6178
  165POPC   H5S22029   2.713   5.753   3.124  0.9471  0.1128 -0.8664
  165POPC   C2622030   2.777   5.548   3.156  0.3205 -0.2324  0.0622
  165POPC   H6R22031   2.773   5.452   3.101  1.3314  0.0306 -0.4897
  165POPC   H6S22032   2.717   5.540   3.249 -2.5053 -0.4063 -1.6683
  165POPC   C2722033   2.925   5.564   3.192 -0.2624  0.1510 -0.1979
  165POPC   H7R22034   2.940   5.661   3.244 -3.1673  0.1137  0.8928
  165POPC   H7S22035   2.999   5.560   3.109 -1.5679 -2.7271 -1.3640
  165POPC   C2822036   2.962   5.454   3.296 -0.2995  0.0586 -0.1493
  165POPC   H8R22037   2.952   5.357   3.243 -1.7634  0.7966 -1.3282
  165POPC   H8S22038   2.893   5.454   3.383 -0.5107 -1.8456 -0.2801
  165POPC   C2922039   3.104   5.465   3.348  0.1029  0.2707 -0.1509
  165POPC   H9122040   3.167   5.529   3.284  1.9153 -0.3611  0.9450
  165POPC  C21022041   3.160   5.399   3.449 -0.1613  0.6904 -0.0960
  165POPC  H10122042   3.269   5.408   3.462  0.6278 -4.3482 -1.1971
  165POPC  C21122043   3.093   5.294   3.534  0.0178 -0.4580  0.6984
  165POPC  H11R22044   3.001   5.260   3.483 -0.3725  1.6594 -0.1016
  165POPC  H11S22045   3.062   5.331   3.634  0.8052 -0.2111  0.8609
  165POPC  C21222046   3.184   5.173   3.555 -0.8365  0.7749 -0.2394
  165POPC  H12R22047   3.137   5.108   3.632 -0.9367 -0.2267 -1.1380
  165POPC  H12S22048   3.282   5.204   3.598 -0.2766 -1.4783  0.2426
  165POPC  C21322049   3.229   5.090   3.430  0.3516  0.1818 -0.3140
  165POPC  H13R22050   3.296   5.150   3.365  1.8017  0.0683  1.0091
  165POPC  H13S22051   3.138   5.057   3.376 -2.2150 -0.0546  3.6900
  165POPC  C21422052   3.306   4.968   3.464 -0.3267  0.0021 -0.2848
  165POPC  H14R22053   3.384   4.984   3.541 -1.8182 -0.9244  1.4941
  165POPC  H14S22054   3.352   4.935   3.368  1.2256  2.0709 -0.3146
  165POPC  C21522055   3.236   4.850   3.514 -0.1362 -0.2050  0.5289
  165POPC  H15R22056   3.156   4.826   3.441 -1.5181  0.0246  1.9352
  165POPC  H15S22057   3.186   4.867   3.612 -0.2582  0.4763  0.3548
  165POPC  C21622058   3.315   4.719   3.494  0.1622 -0.0096  0.1927
  165POPC  H16R22059   3.415   4.719   3.544  0.9897 -1.4758 -1.3492
  165POPC  H16S22060   3.331   4.701   3.385 -2.0081  0.9925 -0.3437
  165POPC  C21722061   3.242   4.593   3.532 -0.0432  0.3991  0.7812
  165POPC  H17R22062   3.305   4.507   3.501  1.7073  0.5652  3.5541
  165POPC  H17S22063   3.141   4.594   3.484  0.4179  2.0717 -0.2488
  165POPC  C21822064   3.219   4.585   3.684  0.2410 -0.7184  0.5843
  165POPC  H18R22065   3.310   4.578   3.748  1.3652  0.8403 -0.7669
  165POPC  H18S22066   3.151   4.500   3.707 -2.5434  0.7235 -1.5964
  165POPC  H18T22067   3.159   4.669   3.723  2.1605  0.5768  0.8590
  165POPC   C3322068   2.234   5.759   3.068 -0.3698 -0.2522 -0.1379
  165POPC   H3X22069   2.233   5.649   3.058 -1.8157 -0.2409 -0.3491
  165POPC   H3Y22070   2.129   5.789   3.045 -0.6539 -1.1763 -0.0920
  165POPC   C3422071   2.274   5.788   3.209 -0.1580  0.7155 -0.5012
  165POPC   H4X22072   2.377   5.750   3.227  0.4038  2.1085 -0.6726
  165POPC   H4Y22073   2.214   5.727   3.280  0.7766 -0.2697 -0.5353
  165POPC   C3522074   2.284   5.934   3.250 -0.4239 -0.0826  0.1808
  165POPC   H5X22075   2.177   5.963   3.254  0.1959  2.8456 -1.5804
  165POPC   H5Y22076   2.329   5.991   3.166 -0.1458 -1.7269 -0.8359
  165POPC   C3622077   2.353   5.964   3.387 -0.2543 -0.0775 -0.3777
  165POPC   H6X22078   2.325   6.068   3.412 -0.0844 -0.5302  1.9607
  165POPC   H6Y22079   2.462   5.949   3.368 -0.1720 -2.2897  1.4170
  165POPC   C3722080   2.296   5.888   3.517  0.4524 -0.1779  0.3778
  165POPC   H7X22081   2.318   5.779   3.509  1.0867 -0.1710  1.8557
  165POPC   H7Y22082   2.186   5.906   3.520  0.5041  1.3887 -2.6034
  165POPC   C3822083   2.344   5.937   3.655  0.3853  0.3167  0.1811
  165POPC   H8X22084   2.454   5.925   3.670  0.4108 -0.2833 -0.4831
  165POPC   H8Y22085   2.292   5.878   3.733 -0.8809 -0.3815 -1.1578
  165POPC   C3922086   2.295   6.081   3.683  0.0036 -0.7508 -0.8450
  165POPC   H9X22087   2.185   6.092   3.674  0.2544  1.3131 -1.9109
  165POPC   H9Y22088   2.333   6.154   3.608  0.6002  1.1781  1.2441
  165POPC  C31022089   2.362   6.129   3.807  0.1164 -0.5168 -0.2214
  165POPC  H10X22090   2.472   6.123   3.801  0.0801 -1.7017  0.0370
  165POPC  H10Y22091   2.336   6.058   3.888  2.9893 -0.4320  0.8698
  165POPC  C31122092   2.306   6.258   3.862 -0.0797 -0.7670 -0.1358
  165POPC  H11X22093   2.299   6.330   3.777  1.7614  0.3487  0.5956
  165POPC  H11Y22094   2.378   6.302   3.934  0.6750 -1.3140 -0.5389
  165POPC  C31222095   2.164   6.239   3.914  0.0461  0.1035 -0.3625
  165POPC  H12X22096   2.153   6.161   3.992  0.2764  1.8496  1.4916
  165POPC  H12Y22097   2.104   6.210   3.825 -2.6258 -0.7471  1.6040
  165POPC  C31322098   2.092   6.362   3.974 -0.1544 -0.1185  0.2524
  165POPC  H13X22099   2.134   6.398   4.071 -2.5905  0.4848  1.1793
  165POPC  H13Y22100   2.101   6.444   3.900 -0.7923  0.2010  0.5117
  165POPC  C31422101   1.944   6.323   4.011 -0.5308 -0.2385 -0.3668
  165POPC  H14X22102   1.945   6.244   4.089 -1.8583  0.8179  0.7747
  165POPC  H14Y22103   1.895   6.287   3.918 -1.7765 -0.8712  0.5135
  165POPC  C31522104   1.861   6.436   4.070  0.0395  0.2950 -0.1616
  165POPC  H15X22105   1.757   6.428   4.031  0.2005  1.1617 -0.7955
  165POPC  H15Y22106   1.900   6.533   4.033  0.3877 -0.2705 -1.3454
  165POPC  C31622107   1.861   6.423   4.224 -0.2242 -0.1954  0.5615
  165POPC  H16X22108   1.959   6.384   4.259  0.8691  0.7782 -1.2377
  165POPC  H16Y22109   1.783   6.347   4.250 -0.4817 -0.6868 -1.4776
  165POPC  H16Z22110   1.848   6.520   4.275  1.0109 -0.9565  2.4589
  166POPC     N22111   5.085   4.553   1.966  0.0548  0.5420 -0.9432
  166POPC   C1222112   5.068   4.540   2.117 -0.3520  0.1766 -0.3225
  166POPC  H12A22113   5.086   4.438   2.145 -3.4188  0.4284  3.3732
  166POPC  H12B22114   4.969   4.576   2.140 -0.5216  0.0505 -0.8369
  166POPC   C1322115   4.974   4.472   1.899 -0.8351 -0.6466 -0.5297
  166POPC  H13A22116   4.967   4.495   1.794 -0.1800  0.4979 -0.3463
  166POPC  H13B22117   4.995   4.367   1.909  0.8397 -0.1977  1.2097
  166POPC  H13C22118   4.875   4.489   1.940 -0.9581 -0.3300 -0.9441
  166POPC   C1422119   5.079   4.695   1.922 -1.2078  0.0178  0.1613
  166POPC  H14A22120   4.986   4.741   1.951 -0.6429 -0.1018  2.3001
  166POPC  H14B22121   5.165   4.750   1.957 -0.1308 -1.4856 -0.0023
  166POPC  H14C22122   5.093   4.691   1.815 -0.8945 -1.2457  0.2410
  166POPC   C1522123   5.212   4.490   1.924 -0.4085  0.2461  0.4022
  166POPC  H15A22124   5.236   4.511   1.821  1.8761  1.0804  1.0372
  166POPC  H15B22125   5.217   4.383   1.918 -0.2671  0.3363 -2.5185
  166POPC  H15C22126   5.301   4.526   1.973  3.1013 -4.8131 -1.3921
  166POPC   C1122127   5.176   4.625   2.198  0.6338  0.0765 -0.0490
  166POPC  H11A22128   5.133   4.623   2.300 -2.9420  2.2088 -1.3051
  166POPC  H11B22129   5.156   4.731   2.170 -1.3294 -0.3960 -0.5944
  166POPC     P22130   5.409   4.516   2.275 -0.0200 -0.0534  0.4004
  166POPC   O1322131   5.541   4.486   2.208  0.6317  0.1203 -0.0895
  166POPC   O1422132   5.333   4.401   2.325  0.0568  0.4238 -0.1788
  166POPC   O1222133   5.313   4.596   2.184 -0.1488 -0.0130 -0.1247
  166POPC   O1122134   5.432   4.612   2.395  0.7594  0.4057 -0.1038
  166POPC    C122135   5.560   4.603   2.456 -0.5257 -1.1372  0.2878
  166POPC    HA22136   5.627   4.672   2.400 -0.8033  1.4726  2.8927
  166POPC    HB22137   5.605   4.502   2.455 -1.6752 -1.6710 -1.1260
  166POPC    C222138   5.570   4.667   2.595  0.4706  0.6723 -0.5609
  166POPC    HS22139   5.679   4.686   2.610  0.3838  1.2608 -0.6771
  166POPC   O2122140   5.514   4.581   2.695  0.0631 -0.1453  0.4919
  166POPC   C2122141   5.583   4.537   2.794  0.2454  0.3274  0.3012
  166POPC   O2222142   5.708   4.552   2.808  0.1760 -0.1085  0.0490
  166POPC   C2222143   5.496   4.457   2.898 -0.0401 -0.8407 -0.1770
  166POPC   H2R22144   5.492   4.354   2.855 -0.8128  0.1264 -2.5882
  166POPC   H2S22145   5.401   4.514   2.903  1.4967  1.7764  0.7060
  166POPC    C322146   5.488   4.798   2.606  0.0657 -0.0856  0.0853
  166POPC    HX22147   5.381   4.771   2.588  0.2936  0.4580 -2.4737
  166POPC    HY22148   5.518   4.862   2.520 -0.9391  0.9018  0.4419
  166POPC   O3122149   5.519   4.867   2.729 -0.0415  0.3607 -0.4480
  166POPC   C3122150   5.416   4.925   2.790  0.6711 -0.3411  0.2744
  166POPC   O3222151   5.306   4.948   2.739 -0.4128  0.7078 -0.3634
  166POPC   C3222152   5.471   4.947   2.936  0.8178  0.1548  1.0029
  166POPC   H2X22153   5.415   5.032   2.981  1.3092  1.6326 -1.0119
  166POPC   H2Y22154   5.580   4.966   2.937  1.0001 -0.5645 -0.9643
  166POPC   C2322155   5.570   4.443   3.034  1.0819 -0.2440 -0.3683
  166POPC   H3R22156   5.602   4.543   3.070 -0.6260  0.4692 -0.7406
  166POPC   H3S22157   5.669   4.391   3.033  1.5496  0.5407  1.7003
  166POPC   C2422158   5.488   4.390   3.151  0.2532 -0.1154 -0.4319
  166POPC   H4R22159   5.401   4.456   3.171 -0.1131 -0.9972  1.0264
  166POPC   H4S22160   5.556   4.388   3.239 -0.2022  0.9418 -0.0417
  166POPC   C2522161   5.447   4.245   3.120  0.7149  0.0393 -0.0757
  166POPC   H5R22162   5.546   4.195   3.113 -0.4808 -2.5900  0.4529
  166POPC   H5S22163   5.386   4.231   3.028  1.4638  1.8150 -0.8959
  166POPC   C2622164   5.369   4.183   3.235 -0.2650 -1.3098 -0.6866
  166POPC   H6R22165   5.295   4.253   3.280  0.6360 -0.7689 -0.0047
  166POPC   H6S22166   5.442   4.171   3.318  1.0042 -1.0242 -1.7292
  166POPC   C2722167   5.305   4.050   3.188  0.3584  0.2298 -0.1584
  166POPC   H7R22168   5.387   3.989   3.144  0.7627 -0.4358  1.4279
  166POPC   H7S22169   5.225   4.071   3.115  0.6414  1.5621 -0.1161
  166POPC   C2822170   5.243   3.967   3.304 -0.3128  0.3454  0.0094
  166POPC   H8R22171   5.326   3.964   3.377  1.3966  2.0242 -1.7493
  166POPC   H8S22172   5.217   3.864   3.272 -4.0610  0.9124  0.7973
  166POPC   C2922173   5.126   4.043   3.372 -0.3805 -0.5861  0.8364
  166POPC   H9122174   5.061   4.098   3.303  2.6772 -0.9744 -2.6507
  166POPC  C21022175   5.128   4.076   3.504 -0.2690 -0.7323  0.6867
  166POPC  H10122176   5.036   4.131   3.529 -0.8919 -0.4963 -1.8169
  166POPC  C21122177   5.219   4.038   3.618  0.6876  0.0918  0.3583
  166POPC  H11R22178   5.232   4.127   3.682 -1.0835  0.7794 -0.1818
  166POPC  H11S22179   5.317   4.003   3.577 -0.3889 -2.4981 -0.2393
  166POPC  C21222180   5.151   3.930   3.708 -0.2460 -0.0183 -0.1400
  166POPC  H12R22181   5.108   3.848   3.647 -0.9599 -0.0655  0.4108
  166POPC  H12S22182   5.069   3.978   3.766  1.2692  1.2972  1.0043
  166POPC  C21322183   5.258   3.866   3.809 -0.0877  0.8949 -0.0278
  166POPC  H13R22184   5.336   3.829   3.740  1.3345 -1.2236  2.5290
  166POPC  H13S22185   5.200   3.789   3.864 -0.1342  1.8482  1.3326
  166POPC  C21422186   5.321   3.968   3.903 -0.2850  0.7815  0.4459
  166POPC  H14R22187   5.372   4.046   3.843 -0.1800  0.1294 -0.3332
  166POPC  H14S22188   5.400   3.922   3.966 -0.1544  0.4968  0.0735
  166POPC  C21522189   5.216   4.034   3.990  0.2071  0.4823 -0.5563
  166POPC  H15R22190   5.129   4.071   3.932  0.3006  0.1370 -0.9181
  166POPC  H15S22191   5.271   4.118   4.037  3.3111 -0.8862 -1.4767
  166POPC  C21622192   5.172   3.941   4.098  0.1493  0.0121  0.2933
  166POPC  H16R22193   5.248   3.874   4.143 -0.7939  0.4136  2.6482
  166POPC  H16S22194   5.090   3.876   4.062 -0.6593  0.6619  0.8944
  166POPC  C21722195   5.094   4.021   4.211 -0.2208  0.1289  0.6243
  166POPC  H17R22196   5.013   4.089   4.178 -2.0572 -2.5510 -0.7794
  166POPC  H17S22197   5.181   4.080   4.246  2.2029 -1.1584 -2.7372
  166POPC  C21822198   5.031   3.933   4.319 -0.3976 -0.7247  0.3516
  166POPC  H18R22199   4.933   3.897   4.282 -1.0839  0.9143  0.5013
  166POPC  H18S22200   5.030   3.990   4.414  1.3274 -0.9834  0.5573
  166POPC  H18T22201   5.094   3.845   4.345  2.1202  1.1186  0.8958
  166POPC   C3322202   5.442   4.830   3.034 -0.1604 -0.2905  0.3288
  166POPC   H3X22203   5.522   4.755   3.021  0.2998  0.4059 -1.0904
  166POPC   H3Y22204   5.349   4.773   3.015 -0.9813  1.7641 -2.5064
  166POPC   C3422205   5.443   4.882   3.184  0.9719 -0.2906  0.2521
  166POPC   H4X22206   5.374   4.817   3.242 -0.5389 -1.2451 -2.4353
  166POPC   H4Y22207   5.383   4.975   3.192 -0.8392 -1.3179 -0.5698
  166POPC   C3522208   5.575   4.890   3.256  0.3734  0.0459 -0.7847
  166POPC   H5X22209   5.655   4.944   3.202  2.2061 -1.3608  0.3756
  166POPC   H5Y22210   5.620   4.792   3.284 -0.5916 -0.2468 -0.1859
  166POPC   C3622211   5.565   4.972   3.395  0.3490 -0.0214  0.2895
  166POPC   H6X22212   5.666   4.971   3.442  0.2441  0.4929  0.5278
  166POPC   H6Y22213   5.490   4.926   3.464 -0.6787  0.6328 -0.3726
  166POPC   C3722214   5.523   5.123   3.373 -0.1173 -0.0126 -0.2190
  166POPC   H7X22215   5.431   5.128   3.311  0.1371  4.1982 -0.5268
  166POPC   H7Y22216   5.603   5.166   3.311 -1.4828 -1.1581 -2.9402
  166POPC   C3822217   5.500   5.198   3.503 -0.1099  0.2814 -0.5844
  166POPC   H8X22218   5.418   5.155   3.565 -1.0797  2.1768 -0.4775
  166POPC   H8Y22219   5.480   5.306   3.491  1.7839  0.5905 -1.3785
  166POPC   C3922220   5.629   5.194   3.595  0.1280 -0.0987 -0.1047
  166POPC   H9X22221   5.618   5.294   3.642  1.3731  0.1996 -0.3995
  166POPC   H9Y22222   5.725   5.173   3.544 -0.9599 -2.1600 -1.4601
  166POPC  C31022223   5.617   5.094   3.713 -0.0324 -0.0782 -0.5981
  166POPC  H10X22224   5.606   4.992   3.672 -2.2017  0.6104 -1.8855
  166POPC  H10Y22225   5.529   5.116   3.778 -1.2405 -3.2526 -1.0039
  166POPC  C31122226   5.739   5.088   3.802 -0.2972  0.1923 -0.0311
  166POPC  H11X22227   5.810   5.017   3.753 -0.3952  0.3711 -0.4364
  166POPC  H11Y22228   5.708   5.023   3.887 -0.8196  0.2677 -0.1660
  166POPC  C31222229   5.811   5.213   3.852 -0.1544  0.3763 -0.0211
  166POPC  H12X22230   5.833   5.266   3.756 -0.6126  0.0639 -0.3064
  166POPC  H12Y22231   5.897   5.193   3.918 -1.3036  2.2146  2.1710
  166POPC  C31322232   5.719   5.287   3.944  0.4081  0.3088 -0.4270
  166POPC  H13X22233   5.615   5.294   3.905  1.0070  0.8732 -1.9728
  166POPC  H13Y22234   5.759   5.390   3.949 -0.3266  0.5704  0.4919
  166POPC  C31422235   5.714   5.245   4.086  0.7709  0.1116 -0.2248
  166POPC  H14X22236   5.786   5.313   4.136  0.6585  0.5588 -0.6674
  166POPC  H14Y22237   5.741   5.138   4.100 -2.4292 -0.4979  2.7630
  166POPC  C31522238   5.575   5.267   4.154  0.1755 -0.0517 -0.5468
  166POPC  H15X22239   5.540   5.363   4.111  0.1997  1.2710  2.1725
  166POPC  H15Y22240   5.585   5.277   4.264 -0.7428  2.5195 -0.6272
  166POPC  C31622241   5.471   5.164   4.107  0.9853  0.8144 -0.4812
  166POPC  H16X22242   5.383   5.173   4.175  0.5460  0.7547 -1.0340
  166POPC  H16Y22243   5.500   5.057   4.114  1.4894  0.8141 -2.2301
  166POPC  H16Z22244   5.436   5.181   4.003  1.4339  0.0481 -0.7604
  167POPC     N22245   7.355   5.290   1.930 -0.4824 -0.4585 -0.1579
  167POPC   C1222246   7.229   5.206   1.942  0.5903  0.6412 -0.1138
  167POPC  H12A22247   7.235   5.140   1.857 -0.2555  0.6448 -0.1821
  167POPC  H12B22248   7.148   5.273   1.919 -1.6805 -1.6481  0.8738
  167POPC   C1322249   7.467   5.195   1.942  0.3886  0.2222  0.4744
  167POPC  H13A22250   7.458   5.122   1.863 -1.5278  0.6506  0.2456
  167POPC  H13B22251   7.560   5.250   1.931  0.8230 -0.1105  2.1921
  167POPC  H13C22252   7.463   5.138   2.033 -1.8931  0.9015  0.8481
  167POPC   C1422253   7.363   5.373   1.809 -0.0330 -0.6191  0.4842
  167POPC  H14A22254   7.353   5.306   1.725 -3.8162  1.1055 -0.6683
  167POPC  H14B22255   7.272   5.432   1.810 -0.3595 -1.1201  1.9666
  167POPC  H14C22256   7.445   5.443   1.802 -1.3531  0.8714 -0.9412
  167POPC   C1522257   7.357   5.395   2.039  0.2948  0.1008  0.2774
  167POPC  H15A22258   7.395   5.352   2.131  1.3075  1.0212  0.3121
  167POPC  H15B22259   7.261   5.445   2.040  0.0484 -0.3174 -0.8989
  167POPC  H15C22260   7.430   5.462   1.997 -1.4827  0.3416 -2.7009
  167POPC   C1122261   7.186   5.124   2.073  0.2032 -0.4734 -0.3033
  167POPC  H11A22262   7.096   5.062   2.053 -1.6323  2.0656 -0.4701
  167POPC  H11B22263   7.163   5.197   2.154  2.1012  0.4101 -0.5027
  167POPC     P22264   7.304   4.888   2.130  0.0898 -0.4702 -0.2195
  167POPC   O1322265   7.435   4.844   2.182 -0.1136  0.6580  0.3997
  167POPC   O1422266   7.253   4.841   1.998 -0.2314 -0.1399  0.1805
  167POPC   O1222267   7.295   5.045   2.123  0.1221 -0.7485 -0.3310
  167POPC   O1122268   7.195   4.857   2.240 -0.5150  0.2485 -0.3327
  167POPC    C122269   7.217   4.918   2.368  0.4983 -0.1093 -0.4447
  167POPC    HA22270   7.126   4.975   2.398  0.5412  0.0372 -0.5929
  167POPC    HB22271   7.310   4.979   2.368  0.5048 -0.1201 -0.5350
  167POPC    C222272   7.245   4.816   2.480 -0.1705  0.3996  0.3133
  167POPC    HS22273   7.158   4.750   2.500 -0.8431  0.5784 -1.7890
  167POPC   O2122274   7.286   4.887   2.595  0.1548 -0.5700  0.0915
  167POPC   C2122275   7.198   4.941   2.674  0.2639  0.4513 -1.0811
  167POPC   O2222276   7.079   4.938   2.659 -0.5521 -0.8914  0.3473
  167POPC   C2222277   7.265   5.004   2.794 -0.8344 -0.3984 -0.1358
  167POPC   H2R22278   7.311   5.097   2.757  1.6883 -1.8023 -0.7676
  167POPC   H2S22279   7.347   4.944   2.839 -0.0876  0.7325  0.0382
  167POPC    C322280   7.353   4.717   2.449 -0.2333  0.4671 -0.5122
  167POPC    HX22281   7.445   4.757   2.403  0.8524 -1.8342 -0.4860
  167POPC    HY22282   7.313   4.647   2.373  1.3129 -0.8696 -0.1485
  167POPC   O3122283   7.387   4.630   2.560  0.4624 -0.8006 -0.0492
  167POPC   C3122284   7.313   4.520   2.581 -0.8685 -0.0550 -0.1848
  167POPC   O3222285   7.208   4.502   2.531  0.0267  0.1630  0.1026
  167POPC   C3222286   7.361   4.439   2.699  0.1594 -0.6142 -1.0601
  167POPC   H2X22287   7.459   4.394   2.670  0.9996  0.7466 -0.3973
  167POPC   H2Y22288   7.277   4.369   2.717  0.9888 -1.1806  0.9022
  167POPC   C2322289   7.167   5.041   2.910  0.0316  0.3091 -0.9899
  167POPC   H3R22290   7.147   4.948   2.966  2.7846  1.0720  1.5330
  167POPC   H3S22291   7.075   5.093   2.875  0.9501  3.0696  0.4280
  167POPC   C2422292   7.226   5.146   3.011 -0.1114 -0.6434 -0.1591
  167POPC   H4R22293   7.212   5.248   2.970  1.9823 -0.0391  0.5234
  167POPC   H4S22294   7.334   5.122   3.020 -0.1369 -1.7157 -2.1344
  167POPC   C2522295   7.153   5.145   3.135  0.6975  0.5385 -0.7798
  167POPC   H5R22296   7.125   5.042   3.163  0.6369  0.5308 -0.8692
  167POPC   H5S22297   7.059   5.201   3.115  0.8003  0.9708 -0.1098
  167POPC   C2622298   7.206   5.216   3.259  0.3694  0.2525 -0.0610
  167POPC   H6R22299   7.291   5.149   3.284 -0.1468 -1.0210 -1.5385
  167POPC   H6S22300   7.130   5.212   3.340  1.0788  0.6549  0.6358
  167POPC   C2722301   7.247   5.363   3.232  0.7100 -0.2890  0.0011
  167POPC   H7R22302   7.160   5.415   3.186  1.2142  0.4953 -0.0949
  167POPC   H7S22303   7.338   5.370   3.169  0.7148 -1.6346 -0.1669
  167POPC   C2822304   7.289   5.425   3.361  0.0741 -0.9306  0.1993
  167POPC   H8R22305   7.366   5.357   3.403 -0.0460  0.6395  3.2011
  167POPC   H8S22306   7.206   5.428   3.434 -0.0767  2.6568  0.0657
  167POPC   C2922307   7.344   5.569   3.340  0.6088  0.2247 -0.2442
  167POPC   H9122308   7.452   5.579   3.323  0.8722 -1.9758 -0.2128
  167POPC  C21022309   7.274   5.684   3.353 -0.6500  0.1126 -0.0562
  167POPC  H10122310   7.313   5.783   3.327 -0.1766 -0.4910 -1.7384
  167POPC  C21122311   7.122   5.703   3.368 -0.3556  0.2444 -0.4752
  167POPC  H11R22312   7.068   5.607   3.349 -0.3411  0.3020 -0.8294
  167POPC  H11S22313   7.088   5.781   3.296 -1.4089  1.6755  1.4976
  167POPC  C21222314   7.097   5.741   3.517  0.1374 -0.2854 -0.0260
  167POPC  H12R22315   7.128   5.847   3.536 -1.0231 -0.0481  0.6689
  167POPC  H12S22316   7.150   5.672   3.587 -0.8795  0.6911  1.7961
  167POPC  C21322317   6.952   5.732   3.571 -0.4716 -0.2478  0.4183
  167POPC  H13R22318   6.885   5.783   3.499  0.0930  2.5119  1.7319
  167POPC  H13S22319   6.938   5.792   3.663  0.2586 -1.3415  1.2626
  167POPC  C21422320   6.919   5.581   3.601  0.4619  0.2955  0.0619
  167POPC  H14R22321   6.947   5.556   3.706  0.9667  1.8686  0.3228
  167POPC  H14S22322   6.968   5.519   3.524 -0.9243 -0.8337  0.0412
  167POPC  C21522323   6.766   5.552   3.578 -0.2184  0.1214 -0.3439
  167POPC  H15R22324   6.744   5.445   3.560  0.3520 -0.0002 -0.3138
  167POPC  H15S22325   6.738   5.589   3.476 -0.3517  0.5728 -0.1466
  167POPC  C21622326   6.662   5.611   3.687 -0.3660  0.2299  0.3189
  167POPC  H16R22327   6.554   5.590   3.670 -1.3155  2.3574  2.9059
  167POPC  H16S22328   6.689   5.719   3.677  0.4978 -0.0061  0.0485
  167POPC  C21722329   6.692   5.558   3.825  0.8005  1.0824 -0.3503
  167POPC  H17R22330   6.800   5.559   3.852  0.4284  3.5916  1.4148
  167POPC  H17S22331   6.654   5.454   3.835  0.8196  1.1230  0.1404
  167POPC  C21822332   6.621   5.630   3.942 -0.1670 -0.1529  0.7299
  167POPC  H18R22333   6.511   5.619   3.937 -0.0370 -1.1400 -0.1354
  167POPC  H18S22334   6.633   5.739   3.922  0.4635 -0.3752 -0.1278
  167POPC  H18T22335   6.644   5.598   4.046  0.5698  3.2857  1.7652
  167POPC   C3322336   7.370   4.520   2.829 -0.3457  0.3059 -0.0093
  167POPC   H3X22337   7.287   4.594   2.833  0.8324  1.7746 -1.4796
  167POPC   H3Y22338   7.463   4.581   2.827  0.2234 -0.5719 -1.2065
  167POPC   C3422339   7.383   4.434   2.962 -0.0862 -0.2039  0.0547
  167POPC   H4X22340   7.387   4.507   3.046  0.6514  1.3827 -1.3062
  167POPC   H4Y22341   7.468   4.362   2.957  0.4391  0.4071  0.0871
  167POPC   C3522342   7.256   4.348   2.985  0.1604 -1.0784  0.2732
  167POPC   H5X22343   7.251   4.262   2.915 -2.7086  0.3192 -1.4331
  167POPC   H5Y22344   7.168   4.412   2.959 -0.3079 -1.6168  0.5159
  167POPC   C3622345   7.255   4.304   3.126  0.8065  0.8896  0.5768
  167POPC   H6X22346   7.300   4.374   3.199  3.4070 -1.4070  1.3565
  167POPC   H6Y22347   7.319   4.214   3.123 -0.6446 -0.1636 -0.3540
  167POPC   C3722348   7.111   4.266   3.165 -0.3133 -0.6178  0.1974
  167POPC   H7X22349   7.064   4.195   3.094  0.6532 -0.5446 -0.5416
  167POPC   H7Y22350   7.046   4.356   3.173 -0.3309 -0.7384  1.7757
  167POPC   C3822351   7.107   4.198   3.306  0.2708 -0.1412  0.3168
  167POPC   H8X22352   7.007   4.150   3.310  0.9133 -1.5791 -0.2080
  167POPC   H8Y22353   7.130   4.280   3.378 -1.3296  0.3244  0.3382
  167POPC   C3922354   7.216   4.089   3.327 -0.2388 -0.3787  0.2417
  167POPC   H9X22355   7.322   4.117   3.308 -0.6699  0.6411 -0.8119
  167POPC   H9Y22356   7.190   4.020   3.243 -0.9144  0.5587 -0.3377
  167POPC  C31022357   7.201   4.002   3.455  0.3897 -0.4176  0.4044
  167POPC  H10X22358   7.231   4.068   3.539  1.8666  1.2956 -1.3786
  167POPC  H10Y22359   7.278   3.923   3.437  0.0290 -0.6093 -0.3732
  167POPC  C31122360   7.074   3.923   3.472 -0.7836  0.0957  0.3665
  167POPC  H11X22361   7.024   3.886   3.380 -1.6279  0.0279  0.8373
  167POPC  H11Y22362   7.001   3.991   3.522  1.0142  1.3800  1.3558
  167POPC  C31222363   7.094   3.802   3.568  0.0244 -0.1919  0.5476
  167POPC  H12X22364   7.170   3.832   3.643 -0.0301  1.2753  0.0467
  167POPC  H12Y22365   7.105   3.701   3.523 -3.4551  0.7276 -2.9169
  167POPC  C31322366   6.978   3.779   3.655 -0.4147 -0.0547 -0.6222
  167POPC  H13X22367   6.902   3.715   3.605 -0.1485  0.0066 -1.1200
  167POPC  H13Y22368   6.930   3.873   3.690  0.0943  0.8802 -2.3122
  167POPC  C31422369   7.021   3.688   3.774  0.3162 -0.0978 -0.8816
  167POPC  H14X22370   7.093   3.743   3.837 -0.0958  0.1205 -0.5942
  167POPC  H14Y22371   7.071   3.596   3.737 -0.2380 -0.4843 -0.6765
  167POPC  C31522372   6.905   3.659   3.871  0.1387  0.8609 -0.2930
  167POPC  H15X22373   6.812   3.609   3.836 -1.8952  3.1106  1.4805
  167POPC  H15Y22374   6.871   3.760   3.903 -0.1593  0.5918  0.2386
  167POPC  C31622375   6.945   3.567   3.986  0.1487  0.0236  0.3078
  167POPC  H16X22376   6.964   3.465   3.946  1.0242  0.9561 -1.8126
  167POPC  H16Y22377   6.855   3.551   4.049  0.6373 -0.6288  0.8543
  167POPC  H16Z22378   7.029   3.602   4.050  0.4986  0.8990 -0.5994
  168POPC     N22379   1.677   0.760   1.942 -0.6008  0.6470 -1.0396
  168POPC   C1222380   1.628   0.894   2.007 -0.0817  0.6430 -0.7166
  168POPC  H12A22381   1.691   0.975   1.973 -0.5605  0.9804 -0.8103
  168POPC  H12B22382   1.652   0.893   2.113 -1.8717 -1.1223 -0.2672
  168POPC   C1322383   1.824   0.761   1.962 -0.1963  0.5205  0.0376
  168POPC  H13A22384   1.871   0.682   1.906  0.2862  1.3256 -0.7149
  168POPC  H13B22385   1.860   0.855   1.923 -2.5044  1.2398 -0.5124
  168POPC  H13C22386   1.859   0.753   2.064  0.0242  1.2818  0.0258
  168POPC   C1422387   1.619   0.638   2.015  0.4132 -0.1877  0.0748
  168POPC  H14A22388   1.513   0.643   1.998  0.2296  0.6149  1.2917
  168POPC  H14B22389   1.656   0.543   1.978 -2.1459 -0.9620 -0.7026
  168POPC  H14C22390   1.643   0.648   2.120 -0.8238 -0.8776  0.4382
  168POPC   C1522391   1.650   0.761   1.794 -0.1252 -0.7960 -0.4651
  168POPC  H15A22392   1.552   0.805   1.783  0.4276  0.2902 -1.2089
  168POPC  H15B22393   1.657   0.664   1.747  0.3588 -0.3079 -1.4272
  168POPC  H15C22394   1.730   0.821   1.751  0.8912 -3.4585 -2.5394
  168POPC   C1122395   1.484   0.945   1.986  0.1647  0.6478  0.0215
  168POPC  H11A22396   1.483   1.029   2.059  0.7366 -0.3617  1.2261
  168POPC  H11B22397   1.414   0.865   2.019  2.4687 -0.8620  1.5364
  168POPC     P22398   1.500   1.129   1.800 -0.2392  0.0396 -0.4286
  168POPC   O1322399   1.415   1.173   1.692 -0.2014 -0.0189  0.6660
  168POPC   O1422400   1.647   1.129   1.776  0.1556 -0.1682  0.2637
  168POPC   O1222401   1.462   0.979   1.849 -0.3363 -0.1931  0.5321
  168POPC   O1122402   1.460   1.219   1.931 -0.4613  0.3429  0.1900
  168POPC    C122403   1.545   1.327   1.972  0.1013 -0.1692  0.0550
  168POPC    HA22404   1.585   1.387   1.888 -1.7039  1.1780  0.0910
  168POPC    HB22405   1.625   1.288   2.039  1.9104  0.7360 -1.4984
  168POPC    C222406   1.460   1.434   2.058  0.1105  0.2450 -0.1422
  168POPC    HS22407   1.524   1.523   2.076 -0.5085  0.2562  2.4709
  168POPC   O2122408   1.428   1.371   2.190 -0.7025 -0.3192  0.6215
  168POPC   C2122409   1.532   1.370   2.273  0.0692  0.4823  0.1174
  168POPC   O2222410   1.644   1.415   2.253  0.1641 -0.1918  0.0101
  168POPC   C2222411   1.483   1.316   2.408  0.1586 -0.2592  0.5395
  168POPC   H2R22412   1.386   1.364   2.434 -0.2587 -0.5082 -0.4929
  168POPC   H2S22413   1.558   1.351   2.482  0.8408  0.4657 -0.4667
  168POPC    C322414   1.333   1.488   1.978  0.3392  0.2902 -0.5239
  168POPC    HX22415   1.271   1.412   1.925  1.1143 -1.4083  0.9025
  168POPC    HY22416   1.380   1.552   1.901 -3.4148  1.2962 -2.2094
  168POPC   O3122417   1.252   1.581   2.056  0.2440 -0.3678  0.5225
  168POPC   C3122418   1.159   1.520   2.134 -0.3538  0.1158  0.0827
  168POPC   O3222419   1.152   1.400   2.154  0.2554  0.1792  0.5575
  168POPC   C3222420   1.070   1.634   2.191  0.1531  0.6682  0.2459
  168POPC   H2X22421   0.972   1.633   2.138  0.1444 -0.6565  0.2467
  168POPC   H2Y22422   1.112   1.736   2.177 -0.6311  1.3762  2.6468
  168POPC   C2322423   1.474   1.161   2.400  0.3250  0.1030 -0.3553
  168POPC   H3R22424   1.567   1.112   2.436  0.4398  1.0600  0.7065
  168POPC   H3S22425   1.426   1.136   2.303 -0.1247 -2.2824  0.4321
  168POPC   C2422426   1.365   1.101   2.504  0.2347  0.0719  0.0834
  168POPC   H4R22427   1.343   0.993   2.492  1.1304 -0.1899  0.6568
  168POPC   H4S22428   1.269   1.146   2.471 -0.3637  0.0600  1.6989
  168POPC   C2522429   1.414   1.139   2.645 -0.5030  0.8201 -0.6780
  168POPC   H5R22430   1.332   1.115   2.717 -0.5024 -0.5599 -1.0957
  168POPC   H5S22431   1.442   1.244   2.663  1.3282  0.0736  1.1758
  168POPC   C2622432   1.541   1.064   2.699  0.5291  0.5490 -0.1058
  168POPC   H6R22433   1.623   1.082   2.626 -0.8861 -0.9187 -2.1279
  168POPC   H6S22434   1.541   0.954   2.709 -0.7770  0.5520  0.0110
  168POPC   C2722435   1.590   1.124   2.837  0.1763 -0.0554  0.5123
  168POPC   H7R22436   1.514   1.095   2.913 -0.1070 -0.9538 -0.0904
  168POPC   H7S22437   1.598   1.234   2.831 -0.3235  0.0265  1.2941
  168POPC   C2822438   1.727   1.064   2.889 -1.0392  0.3850 -0.5094
  168POPC   H8R22439   1.814   1.094   2.826  1.4914 -0.9075  2.1548
  168POPC   H8S22440   1.723   0.954   2.899  0.1213  0.4947  1.7284
  168POPC   C2922441   1.733   1.123   3.026  0.2704  0.1025 -0.1215
  168POPC   H9122442   1.678   1.063   3.101 -0.9542  1.0788 -0.2005
  168POPC  C21022443   1.786   1.237   3.067 -0.2516  0.1112 -0.2984
  168POPC  H10122444   1.793   1.259   3.174 -1.1505 -2.3442  0.3530
  168POPC  C21122445   1.862   1.323   2.970  0.9067  0.1290 -0.3460
  168POPC  H11R22446   1.823   1.427   2.961  2.0228  0.3887 -3.3535
  168POPC  H11S22447   1.856   1.283   2.866 -0.5102 -1.0113  0.1411
  168POPC  C21222448   2.011   1.341   3.004 -0.1709 -0.3772  0.9549
  168POPC  H12R22449   2.023   1.401   3.096 -0.2223  0.9582  0.1240
  168POPC  H12S22450   2.041   1.414   2.925 -4.2005  0.5700  0.0708
  168POPC  C21322451   2.088   1.207   3.012 -0.0222  0.3888  0.0830
  168POPC  H13R22452   2.047   1.136   2.937 -2.1282  0.0565  1.4626
  168POPC  H13S22453   2.068   1.167   3.114  3.3240 -1.3037  0.1860
  168POPC  C21422454   2.235   1.223   2.989 -1.0899  0.3964  0.6192
  168POPC  H14R22455   2.249   1.309   2.921  0.8134  0.9654  1.6627
  168POPC  H14S22456   2.267   1.132   2.933 -0.8338  1.5756 -1.2257
  168POPC  C21522457   2.326   1.256   3.110 -0.3929  0.5961  0.1702
  168POPC  H15R22458   2.330   1.160   3.166  1.8668  0.4554 -0.1341
  168POPC  H15S22459   2.275   1.320   3.185 -1.0316 -0.0620  0.3055
  168POPC  C21622460   2.476   1.286   3.078 -0.2074  0.7381  0.7312
  168POPC  H16R22461   2.490   1.377   3.017 -1.2171  0.2110 -0.3215
  168POPC  H16S22462   2.501   1.196   3.017  0.6984  1.2400  0.3287
  168POPC  C21722463   2.561   1.290   3.202 -0.7695  0.3433  0.5776
  168POPC  H17R22464   2.546   1.197   3.260 -0.2498  0.9378  1.7015
  168POPC  H17S22465   2.530   1.380   3.260 -2.2219  2.1083 -2.6514
  168POPC  C21822466   2.710   1.291   3.163  0.7701  0.5902  0.2542
  168POPC  H18R22467   2.730   1.192   3.117 -2.3728 -0.5478  1.0741
  168POPC  H18S22468   2.772   1.304   3.254  0.4719  0.1807  0.5158
  168POPC  H18T22469   2.729   1.374   3.091 -0.1840 -0.9231 -1.8408
  168POPC   C3322470   1.048   1.614   2.345 -0.0476 -0.4664 -0.4048
  168POPC   H3X22471   1.004   1.519   2.382 -1.2531  0.9616  2.0750
  168POPC   H3Y22472   0.985   1.700   2.375 -0.4786 -1.1898  0.8384
  168POPC   C3422473   1.188   1.623   2.427 -0.4639 -0.2446  0.1104
  168POPC   H4X22474   1.228   1.726   2.411 -0.1705 -0.0841  1.6894
  168POPC   H4Y22475   1.259   1.550   2.384  0.1517  0.7182 -0.5669
  168POPC   C3522476   1.177   1.606   2.578  0.3504 -0.2892 -0.3148
  168POPC   H5X22477   1.116   1.514   2.590  0.6068 -0.9556 -3.2238
  168POPC   H5Y22478   1.122   1.695   2.614  1.2707  0.8055 -1.5035
  168POPC   C3622479   1.315   1.583   2.644  0.0024  0.3949  0.5068
  168POPC   H6X22480   1.378   1.674   2.648  0.4547  0.0533  1.2110
  168POPC   H6Y22481   1.368   1.511   2.577 -0.7206  1.6359 -1.4845
  168POPC   C3722482   1.314   1.525   2.787  0.2939  0.2559  0.8381
  168POPC   H7X22483   1.238   1.443   2.782 -1.9294  2.2757 -2.6744
  168POPC   H7Y22484   1.264   1.605   2.846  1.5732  0.0582  2.2563
  168POPC   C3822485   1.444   1.491   2.854  0.4382 -0.4294 -0.0177
  168POPC   H8X22486   1.498   1.584   2.879 -0.9794  1.3196 -2.9184
  168POPC   H8Y22487   1.497   1.423   2.785  0.9073 -0.7044  0.6075
  168POPC   C3922488   1.417   1.410   2.984 -0.3573  0.1872 -0.2048
  168POPC   H9X22489   1.520   1.407   3.026 -0.0568 -4.2583 -0.8332
  168POPC   H9Y22490   1.370   1.313   2.957 -2.2629  1.1955 -0.7502
  168POPC  C31022491   1.343   1.487   3.093 -0.0879 -0.0739  0.6351
  168POPC  H10X22492   1.236   1.504   3.067  0.0928  0.6833  0.3430
  168POPC  H10Y22493   1.383   1.590   3.102  0.8745 -0.4887  1.2348
  168POPC  C31122494   1.356   1.418   3.225 -0.4039 -0.2267 -0.4298
  168POPC  H11X22495   1.458   1.378   3.245 -0.0835  1.6819  2.2638
  168POPC  H11Y22496   1.288   1.330   3.224 -1.2322  0.4000 -0.6059
  168POPC  C31222497   1.305   1.502   3.341 -0.1807  0.4837 -0.1848
  168POPC  H12X22498   1.281   1.423   3.416  1.4948  0.3393  0.2240
  168POPC  H12Y22499   1.213   1.558   3.313 -1.0499 -0.6852  0.2513
  168POPC  C31322500   1.421   1.594   3.403 -0.3119  0.3576  0.2786
  168POPC  H13X22501   1.444   1.668   3.323 -1.3407 -2.9265 -3.3432
  168POPC  H13Y22502   1.514   1.533   3.405 -0.8401 -0.4766 -0.3290
  168POPC  C31422503   1.399   1.660   3.546  0.6706  0.4897  0.4059
  168POPC  H14X22504   1.298   1.636   3.584  1.2461 -0.6365  1.2708
  168POPC  H14Y22505   1.408   1.770   3.538 -1.7983  0.7222  0.0456
  168POPC  C31522506   1.483   1.590   3.659 -0.3384  0.2114 -0.6614
  168POPC  H15X22507   1.590   1.606   3.636  0.0430 -1.8572 -0.4262
  168POPC  H15Y22508   1.466   1.481   3.670  0.1544  0.0408 -1.5086
  168POPC  C31622509   1.452   1.647   3.801  0.7029  1.1167  0.0971
  168POPC  H16X22510   1.469   1.757   3.803 -1.5992  1.5031  1.6645
  168POPC  H16Y22511   1.511   1.594   3.879  0.1684 -0.4724 -0.5552
  168POPC  H16Z22512   1.346   1.633   3.828 -0.2503  1.4453 -3.1204
  169POPC     N22513   2.819   0.359   1.656 -0.3784 -0.2998  0.4645
  169POPC   C1222514   2.928   0.276   1.718  0.1163 -0.2315 -0.1293
  169POPC  H12A22515   2.950   0.205   1.639  0.0169  0.8508 -1.1478
  169POPC  H12B22516   2.878   0.226   1.800  0.6184 -1.4901 -0.5630
  169POPC   C1322517   2.857   0.418   1.523  0.4709 -0.1010 -0.0692
  169POPC  H13A22518   2.950   0.474   1.525  1.2176 -0.9449 -4.0014
  169POPC  H13B22519   2.868   0.333   1.457 -0.1974 -1.4687  1.4761
  169POPC  H13C22520   2.783   0.477   1.472  0.2048 -1.1446 -0.9264
  169POPC   C1422521   2.703   0.274   1.632  0.6989 -0.0701  0.0485
  169POPC  H14A22522   2.625   0.339   1.596  1.6974  1.0604 -0.1456
  169POPC  H14B22523   2.734   0.199   1.561 -0.3034  0.9008 -1.4697
  169POPC  H14C22524   2.677   0.217   1.719  0.9102  0.8230  0.7099
  169POPC   C1522525   2.797   0.483   1.748 -0.0949  0.2939  0.3073
  169POPC  H15A22526   2.779   0.575   1.695  0.9778  1.0350  1.1666
  169POPC  H15B22527   2.887   0.499   1.806  0.7020  2.1076 -1.2987
  169POPC  H15C22528   2.713   0.467   1.814 -0.4367  1.1473  0.0994
  169POPC   C1122529   3.058   0.337   1.772 -0.0568 -0.0880  0.3662
  169POPC  H11A22530   3.108   0.393   1.690  2.4908  0.2702  2.0476
  169POPC  H11B22531   3.106   0.242   1.802  0.1144  0.3034  1.3622
  169POPC     P22532   3.160   0.470   1.970 -0.1721  0.1663  0.3545
  169POPC   O1322533   3.095   0.537   2.080 -0.9009  0.2490  0.2606
  169POPC   O1422534   3.234   0.562   1.874 -0.1734 -0.3200  0.2251
  169POPC   O1222535   3.038   0.409   1.886  0.1508  0.1398 -0.2095
  169POPC   O1122536   3.246   0.343   2.015  0.2591 -0.1937 -0.6510
  169POPC    C122537   3.188   0.251   2.103 -0.1637 -0.4048 -0.2240
  169POPC    HA22538   3.243   0.154   2.106 -1.8518 -1.3940  0.5502
  169POPC    HB22539   3.087   0.217   2.070  0.0818 -1.3205 -0.0643
  169POPC    C222540   3.181   0.299   2.247 -0.1018 -0.6084  0.0317
  169POPC    HS22541   3.107   0.381   2.252  1.2862  0.6962  0.0345
  169POPC   O2122542   3.312   0.333   2.292  0.0858 -0.5576 -0.7532
  169POPC   C2122543   3.318   0.433   2.381 -0.2395  0.1878 -0.5906
  169POPC   O2222544   3.222   0.495   2.423 -0.0019 -0.1011  0.5740
  169POPC   C2222545   3.462   0.462   2.420  0.1243 -0.1875  0.2360
  169POPC   H2R22546   3.457   0.552   2.485 -2.5786  0.8721 -1.2560
  169POPC   H2S22547   3.530   0.485   2.335 -0.0773  1.0121  0.3864
  169POPC    C322548   3.104   0.187   2.330  0.0429 -0.0062  0.9505
  169POPC    HX22549   3.178   0.105   2.316 -0.3458 -0.1750 -0.1716
  169POPC    HY22550   3.016   0.145   2.278 -1.1161  1.1703  1.8697
  169POPC   O3122551   3.081   0.223   2.472 -0.5554 -0.0709  0.2876
  169POPC   C3122552   2.979   0.305   2.488  0.2923 -0.5154 -0.4164
  169POPC   O3222553   2.899   0.345   2.406  0.0678  0.6305  0.3804
  169POPC   C3222554   2.967   0.355   2.632  0.0139 -0.1520 -0.5440
  169POPC   H2X22555   3.055   0.419   2.657  0.9502 -2.0388  1.2963
  169POPC   H2Y22556   2.968   0.266   2.699 -0.5276 -1.3391 -2.0743
  169POPC   C2322557   3.524   0.337   2.486 -0.1726  0.4317 -0.0144
  169POPC   H3R22558   3.626   0.362   2.523  0.1441  1.0172 -1.2663
  169POPC   H3S22559   3.555   0.265   2.407  2.5626 -0.4416  1.7000
  169POPC   C2422560   3.441   0.270   2.597  0.0078 -1.1025 -0.2923
  169POPC   H4R22561   3.504   0.192   2.644  0.5365  0.0067  0.9102
  169POPC   H4S22562   3.355   0.211   2.558 -0.3188 -1.2446  0.6190
  169POPC   C2522563   3.401   0.348   2.719  0.0411  0.9251 -1.1641
  169POPC   H5R22564   3.316   0.414   2.694  0.5031  1.8187 -0.4492
  169POPC   H5S22565   3.491   0.404   2.754  1.1122 -1.0423 -0.6000
  169POPC   C2622566   3.353   0.263   2.844 -0.0115 -0.0942  0.9270
  169POPC   H6R22567   3.278   0.190   2.809 -2.1692  2.2396  0.3821
  169POPC   H6S22568   3.320   0.351   2.903  0.6223  1.3362 -0.7375
  169POPC   C2722569   3.466   0.185   2.924  0.0838  0.8985 -0.4004
  169POPC   H7R22570   3.539   0.254   2.971 -0.4766 -0.3151  2.4539
  169POPC   H7S22571   3.526   0.125   2.851  1.5849  1.8140  0.0379
  169POPC   C2822572   3.430   0.100   3.049 -0.6386  0.4237 -0.5217
  169POPC   H8R22573   3.336   0.048   3.022  1.6440 -3.3996 -2.0952
  169POPC   H8S22574   3.407   0.171   3.131 -1.0924 -0.6907  0.3355
  169POPC   C2922575   3.532   0.002   3.099  0.2449  0.4170 -0.2582
  169POPC   H9122576   3.549  -0.085   3.034 -0.0132 -0.9274  1.4046
  169POPC  C21022577   3.585  -0.004   3.217 -0.3023  0.2226 -0.5228
  169POPC  H10122578   3.643  -0.093   3.243  0.0208  0.2243 -1.2184
  169POPC  C21122579   3.566   0.089   3.333  0.3067 -0.1140  0.1638
  169POPC  H11R22580   3.544   0.195   3.308 -0.4956 -0.0803  0.9554
  169POPC  H11S22581   3.663   0.092   3.389  0.5308  0.6539 -0.2599
  169POPC  C21222582   3.467   0.046   3.449 -1.0693  0.0378  0.5596
  169POPC  H12R22583   3.506  -0.055   3.475  2.0413  1.6232  2.6536
  169POPC  H12S22584   3.366   0.036   3.402 -0.6620  3.1897 -1.2581
  169POPC  C21322585   3.458   0.142   3.570  0.0711  0.8003 -0.2725
  169POPC  H13R22586   3.386   0.223   3.545 -0.9254 -0.0996 -0.4154
  169POPC  H13S22587   3.560   0.176   3.597  1.2709 -1.9698 -0.9344
  169POPC  C21422588   3.401   0.071   3.687  0.1215 -0.5393 -1.4589
  169POPC  H14R22589   3.460  -0.020   3.711  1.6806  0.9423  0.7057
  169POPC  H14S22590   3.302   0.034   3.653 -0.5235  1.1486 -1.4751
  169POPC  C21522591   3.368   0.180   3.801  0.2781 -0.3293  0.3221
  169POPC  H15R22592   3.339   0.118   3.889  3.3053 -0.8669  1.0786
  169POPC  H15S22593   3.284   0.240   3.762 -1.7440 -3.8878 -1.2769
  169POPC  C21622594   3.492   0.270   3.847  0.0893 -0.6760 -0.1156
  169POPC  H16R22595   3.469   0.353   3.917  1.2483  0.0154 -0.5400
  169POPC  H16S22596   3.538   0.316   3.756 -1.2549  0.9761 -0.0126
  169POPC  C21722597   3.605   0.179   3.897  0.4219  0.3891 -0.2381
  169POPC  H17R22598   3.623   0.099   3.822 -1.6528  1.3151 -1.8127
  169POPC  H17S22599   3.566   0.137   3.992 -1.7215 -0.3115 -1.3509
  169POPC  C21822600   3.729   0.265   3.912 -0.1771  0.5163 -0.0662
  169POPC  H18R22601   3.803   0.205   3.971  0.0083  0.5746 -0.2372
  169POPC  H18S22602   3.717   0.359   3.969 -0.5562  0.0306  0.6735
  169POPC  H18T22603   3.771   0.283   3.810  1.4152  0.5001  0.5453
  169POPC   C3322604   2.854   0.453   2.664  0.8195 -0.5087  0.2431
  169POPC   H3X22605   2.759   0.395   2.673  2.3063 -2.9085  1.3536
  169POPC   H3Y22606   2.837   0.530   2.586 -2.7787 -0.2469  1.0649
  169POPC   C3422607   2.880   0.528   2.791  0.1811 -0.2176 -0.1211
  169POPC   H4X22608   2.904   0.465   2.878 -0.4748 -2.0317 -1.2063
  169POPC   H4Y22609   2.960   0.603   2.772 -0.3053  0.0465 -1.2839
  169POPC   C3522610   2.756   0.606   2.833 -0.1874 -0.4289  0.0618
  169POPC   H5X22611   2.733   0.693   2.767 -0.0499  1.3136  2.1913
  169POPC   H5Y22612   2.664   0.543   2.832  0.7410 -1.8115  0.0055
  169POPC   C3622613   2.774   0.665   2.978  0.0068  0.0769  0.7675
  169POPC   H6X22614   2.773   0.577   3.046  0.9851 -0.1119  0.5518
  169POPC   H6Y22615   2.874   0.710   2.994  0.1790 -1.1488  3.9982
  169POPC   C3722616   2.672   0.778   3.016  0.3705  0.1698 -0.3985
  169POPC   H7X22617   2.576   0.723   3.022  0.1220  0.7737  2.5195
  169POPC   H7Y22618   2.663   0.853   2.935  0.4900 -0.2710 -0.8256
  169POPC   C3822619   2.689   0.857   3.143 -0.0912  0.1733 -0.1524
  169POPC   H8X22620   2.600   0.916   3.171  0.8166  1.8261 -0.6502
  169POPC   H8Y22621   2.782   0.916   3.128  0.6137 -1.0015 -0.5573
  169POPC   C3922622   2.731   0.756   3.260 -1.1937 -0.6838 -0.5642
  169POPC   H9X22623   2.824   0.699   3.240  1.1391  2.0133  1.7912
  169POPC   H9Y22624   2.650   0.679   3.264 -0.4937 -1.3902  1.1056
  169POPC  C31022625   2.731   0.811   3.400 -0.2418 -1.0556 -0.5861
  169POPC  H10X22626   2.765   0.742   3.481  0.2868 -0.2953 -0.1479
  169POPC  H10Y22627   2.624   0.827   3.421 -0.1997 -2.2256  0.7117
  169POPC  C31122628   2.806   0.947   3.417 -0.1699  0.6249 -0.5194
  169POPC  H11X22629   2.769   1.024   3.345 -2.0835 -0.0709 -0.3591
  169POPC  H11Y22630   2.914   0.933   3.395 -0.2181  1.7718 -1.6029
  169POPC  C31222631   2.782   1.008   3.555  0.9332  0.7470 -0.0148
  169POPC  H12X22632   2.878   1.057   3.585  0.8277  0.8138  0.2170
  169POPC  H12Y22633   2.774   0.924   3.627 -1.8010  1.0460  0.1214
  169POPC  C31322634   2.672   1.118   3.557  0.0926  0.4834  0.2514
  169POPC  H13X22635   2.573   1.071   3.537 -0.0363  0.5340  0.7443
  169POPC  H13Y22636   2.685   1.189   3.473 -0.2974  0.8549  0.4979
  169POPC  C31422637   2.669   1.206   3.676 -0.1659 -0.5062  0.2642
  169POPC  H14X22638   2.591   1.283   3.656 -1.2704 -1.7076 -0.2157
  169POPC  H14Y22639   2.769   1.254   3.685  0.7005 -2.4356  1.4967
  169POPC  C31522640   2.648   1.136   3.809  0.0360 -0.4612  0.2211
  169POPC  H15X22641   2.732   1.066   3.824 -0.7583 -1.6611 -0.7758
  169POPC  H15Y22642   2.550   1.084   3.805 -0.6316  0.6898  0.8252
  169POPC  C31622643   2.640   1.230   3.940 -0.2113  1.1251  0.0814
  169POPC  H16X22644   2.626   1.192   4.043 -0.4277 -0.4659 -0.4932
  169POPC  H16Y22645   2.565   1.304   3.906 -2.0421 -0.8069 -0.3299
  169POPC  H16Z22646   2.740   1.277   3.948  0.2806  1.6835 -5.2829
  170POPC     N22647   4.533   6.417   1.734  0.2791  0.0543 -0.1805
  170POPC   C1222648   4.396   6.469   1.703 -0.1734  0.6138 -0.4756
  170POPC  H12A22649   4.372   6.535   1.785  0.4635 -4.0886  4.0822
  170POPC  H12B22650   4.323   6.390   1.711 -0.0147  0.4327 -0.7925
  170POPC   C1322651   4.633   6.526   1.742  0.0610 -0.6516  0.0472
  170POPC  H13A22652   4.641   6.576   1.647  0.9373  0.2119  0.5542
  170POPC  H13B22653   4.600   6.600   1.814  1.6859 -0.2890  0.4536
  170POPC  H13C22654   4.727   6.485   1.776  0.7776  1.3685  0.6698
  170POPC   C1422655   4.550   6.340   1.866  0.1687 -1.0311  0.2991
  170POPC  H14A22656   4.529   6.409   1.945  0.2514  1.6654 -1.8868
  170POPC  H14B22657   4.489   6.250   1.861 -0.9908 -0.2678  0.3932
  170POPC  H14C22658   4.654   6.318   1.882  0.9046  1.9780  0.2106
  170POPC   C1522659   4.573   6.321   1.628 -0.5900  0.3867  0.4948
  170POPC  H15A22660   4.490   6.260   1.597 -0.3569  0.3164  0.0015
  170POPC  H15B22661   4.658   6.260   1.655 -1.3144  0.3996  3.1094
  170POPC  H15C22662   4.596   6.361   1.531 -0.8071 -1.7869 -0.5257
  170POPC   C1122663   4.391   6.536   1.562  0.8829 -0.2109 -0.8192
  170POPC  H11A22664   4.417   6.457   1.488  3.1720 -3.3752  2.9986
  170POPC  H11B22665   4.460   6.623   1.567  0.7515 -0.1191 -0.6029
  170POPC     P22666   4.208   6.722   1.597  0.0514  0.5671  0.2027
  170POPC   O1322667   4.072   6.734   1.549  0.6726 -0.0655  0.0019
  170POPC   O1422668   4.309   6.810   1.532  0.2942 -0.2683 -0.5625
  170POPC   O1222669   4.256   6.585   1.540 -0.7075  0.2075 -0.0151
  170POPC   O1122670   4.229   6.728   1.749  0.3448  0.1292 -0.4989
  170POPC    C122671   4.148   6.659   1.847 -1.1029 -0.5286  0.6016
  170POPC    HA22672   4.207   6.667   1.941 -0.7447  2.0517  0.2358
  170POPC    HB22673   4.134   6.556   1.809  2.1997 -0.5194 -0.9478
  170POPC    C222674   4.005   6.719   1.871 -0.2109 -0.0360 -0.6241
  170POPC    HS22675   3.956   6.736   1.772 -2.1998 -0.3818  0.2503
  170POPC   O2122676   4.026   6.847   1.935 -0.3269 -0.5764 -0.5305
  170POPC   C2122677   3.925   6.929   1.933  0.1485  0.4717  0.3177
  170POPC   O2222678   3.822   6.915   1.870  0.0839  0.4497 -0.5248
  170POPC   C2222679   3.954   7.044   2.027 -0.5015  0.5997 -0.5364
  170POPC   H2R22680   3.959   7.144   1.979  0.7909  0.4326 -0.7906
  170POPC   H2S22681   4.058   7.024   2.062 -1.1125 -3.2424 -0.4925
  170POPC    C322682   3.920   6.623   1.961 -0.7525 -0.3139  0.9033
  170POPC    HX22683   3.927   6.526   1.908  0.6646 -0.1616  0.7835
  170POPC    HY22684   3.820   6.671   1.964 -0.0928  1.1053  1.0299
  170POPC   O3122685   3.978   6.616   2.091 -0.0027  0.1482 -1.1484
  170POPC   C3122686   3.898   6.548   2.169  0.0391 -0.0335  0.0748
  170POPC   O3222687   3.790   6.506   2.142  0.0154  0.5044  0.3795
  170POPC   C3222688   3.951   6.550   2.315 -0.1492  0.5408  0.0315
  170POPC   H2X22689   3.972   6.655   2.343  1.4455 -0.2374  1.9298
  170POPC   H2Y22690   4.050   6.499   2.314  0.5322  1.7372  1.7747
  170POPC   C2322691   3.857   7.050   2.152 -0.2567 -0.4061 -0.0771
  170POPC   H3R22692   3.764   7.108   2.132  1.3596  2.4387  0.0444
  170POPC   H3S22693   3.920   7.107   2.225  2.9008 -1.2827 -1.9202
  170POPC   C2422694   3.798   6.925   2.209 -0.5788 -0.7679 -0.3555
  170POPC   H4R22695   3.878   6.847   2.210 -0.2811 -0.4576  1.2827
  170POPC   H4S22696   3.729   6.879   2.134 -1.0202 -1.1074  0.2505
  170POPC   C2522697   3.744   6.943   2.348  0.4560  0.0191 -0.7054
  170POPC   H5R22698   3.704   7.047   2.352 -2.1520 -0.9533  1.4142
  170POPC   H5S22699   3.823   6.941   2.426  1.2924 -2.4909 -1.5300
  170POPC   C2622700   3.622   6.848   2.382 -0.7413  0.5206 -0.6767
  170POPC   H6R22701   3.665   6.748   2.407  0.5024  0.8227 -1.5388
  170POPC   H6S22702   3.574   6.833   2.283 -2.1055 -0.3452  0.0865
  170POPC   C2722703   3.518   6.899   2.483  0.0752 -0.6791  0.5299
  170POPC   H7R22704   3.495   7.004   2.455 -2.4688 -0.5851  2.5788
  170POPC   H7S22705   3.569   6.899   2.582  2.3323 -2.4191 -0.5126
  170POPC   C2822706   3.389   6.815   2.493 -0.2841 -0.7164  0.4873
  170POPC   H8R22707   3.337   6.814   2.395  1.0939  1.5467 -0.3348
  170POPC   H8S22708   3.328   6.872   2.566  1.1136  2.5964 -0.7284
  170POPC   C2922709   3.421   6.670   2.516  0.4598  0.6491 -0.9184
  170POPC   H9122710   3.468   6.613   2.435  0.0303 -1.0856 -0.0083
  170POPC  C21022711   3.399   6.595   2.629 -0.2768 -0.0287  0.9749
  170POPC  H10122712   3.437   6.492   2.630 -1.5797 -0.5616  3.6480
  170POPC  C21122713   3.339   6.650   2.757  0.4485 -0.2835  0.1217
  170POPC  H11R22714   3.268   6.574   2.796 -0.7663  0.6444 -0.2448
  170POPC  H11S22715   3.266   6.729   2.731  0.8134  0.0184  0.0059
  170POPC  C21222716   3.433   6.704   2.857 -0.0578  0.0208 -0.6452
  170POPC  H12R22717   3.494   6.784   2.810  4.1503 -3.3845 -1.6633
  170POPC  H12S22718   3.508   6.629   2.890 -0.2189  0.5104  0.9003
  170POPC  C21322719   3.368   6.771   2.983  0.7379 -0.5271  0.7092
  170POPC  H13R22720   3.315   6.685   3.029  0.2720  0.3817  1.9030
  170POPC  H13S22721   3.289   6.838   2.943  0.6229 -0.5581  0.8848
  170POPC  C21422722   3.466   6.817   3.086  0.5342 -0.0573  0.3569
  170POPC  H14R22723   3.546   6.882   3.044  2.2548 -0.6063  2.5407
  170POPC  H14S22724   3.524   6.733   3.131  2.2336  1.9942  2.2141
  170POPC  C21522725   3.412   6.895   3.205  0.9526 -0.0892 -0.4544
  170POPC  H15R22726   3.322   6.836   3.231  0.5758  0.4488 -0.5331
  170POPC  H15S22727   3.401   6.999   3.167  0.8485  0.1456  0.2016
  170POPC  C21622728   3.509   6.911   3.323 -0.8185  0.4742 -0.3584
  170POPC  H16R22729   3.502   6.813   3.375  1.0864  0.3293 -0.2977
  170POPC  H16S22730   3.460   6.992   3.382  0.0131 -0.0872  1.1497
  170POPC  C21722731   3.657   6.950   3.302  1.2997 -0.2793  0.2822
  170POPC  H17R22732   3.669   6.989   3.198  0.9253 -2.2767 -0.5537
  170POPC  H17S22733   3.727   6.864   3.311  0.0917 -1.3478 -0.2736
  170POPC  C21822734   3.707   7.064   3.390  0.8361 -0.0736 -0.2085
  170POPC  H18R22735   3.641   7.152   3.404  1.3190  0.2010  0.4090
  170POPC  H18S22736   3.807   7.092   3.350  1.3397 -0.4249  0.7727
  170POPC  H18T22737   3.736   7.024   3.490 -2.8267 -1.6267  0.3802
  170POPC   C3322738   3.864   6.473   2.417  0.2084 -0.1974 -0.4577
  170POPC   H3X22739   3.872   6.367   2.384 -0.6805 -0.5475  0.4226
  170POPC   H3Y22740   3.757   6.499   2.408  0.2442 -0.0213 -0.3755
  170POPC   C3422741   3.912   6.489   2.565 -0.0485 -0.2313  0.6543
  170POPC   H4X22742   4.016   6.527   2.574 -0.9780  2.0809  2.8309
  170POPC   H4Y22743   3.916   6.382   2.595  1.8372 -0.7079 -1.0889
  170POPC   C3522744   3.842   6.586   2.652 -0.1790 -0.7028  0.2736
  170POPC   H5X22745   3.852   6.560   2.760  0.2657  0.8100  0.6228
  170POPC   H5Y22746   3.738   6.577   2.614  0.0817  1.9463 -1.3335
  170POPC   C3622747   3.888   6.736   2.646  0.6528  0.3148  0.2742
  170POPC   H6X22748   3.858   6.769   2.545  0.1477 -0.4923  0.1523
  170POPC   H6Y22749   3.999   6.736   2.649  0.6379  0.6824  1.2450
  170POPC   C3722750   3.834   6.820   2.763 -0.2921 -0.5233  0.0626
  170POPC   H7X22751   3.888   6.792   2.856 -2.0159 -0.4818  1.1068
  170POPC   H7Y22752   3.726   6.798   2.775 -0.4221  0.3847  0.6740
  170POPC   C3822753   3.831   6.970   2.733  0.1065  0.3573 -0.4416
  170POPC   H8X22754   3.783   6.986   2.634  1.1575  0.5691 -0.9323
  170POPC   H8Y22755   3.929   7.019   2.752  0.1598  0.6759 -1.4902
  170POPC   C3922756   3.730   7.034   2.830 -0.1135  0.3438 -0.6780
  170POPC   H9X22757   3.776   7.025   2.930  0.9347  2.3500 -0.9217
  170POPC   H9Y22758   3.630   6.986   2.825 -0.1964 -0.4268  4.0067
  170POPC  C31022759   3.724   7.187   2.798 -0.4758  0.4355  0.2170
  170POPC  H10X22760   3.671   7.192   2.701 -1.1723 -0.1381  0.5549
  170POPC  H10Y22761   3.831   7.215   2.789 -0.0833 -1.3853 -1.5428
  170POPC  C31122762   3.669   7.271   2.912  0.0913  0.3365 -0.4459
  170POPC  H11X22763   3.674   7.380   2.892  0.1063  0.0409 -2.2337
  170POPC  H11Y22764   3.734   7.250   2.999 -0.1231  1.5817  0.0366
  170POPC  C31222765   3.524   7.243   2.933  0.2533 -0.5242 -0.1934
  170POPC  H12X22766   3.503   7.135   2.938  0.5395 -0.6913 -1.9838
  170POPC  H12Y22767   3.478   7.287   2.841  1.7247 -0.5095 -0.9415
  170POPC  C31322768   3.478   7.313   3.062  0.3824 -0.4271  0.1060
  170POPC  H13X22769   3.517   7.417   3.064  0.1662 -0.3533  1.1842
  170POPC  H13Y22770   3.525   7.269   3.153  1.2893  0.9783  0.3502
  170POPC  C31422771   3.327   7.312   3.086  0.5469 -0.4246 -0.1640
  170POPC  H14X22772   3.285   7.210   3.095 -2.2023  0.7567  1.8971
  170POPC  H14Y22773   3.282   7.371   3.004 -1.1876 -0.0050  1.0279
  170POPC  C31522774   3.298   7.378   3.220  0.4344 -0.3520  0.0396
  170POPC  H15X22775   3.343   7.480   3.214 -0.3652  0.2289  2.5874
  170POPC  H15Y22776   3.359   7.324   3.295  0.4428  0.5641  0.7122
  170POPC  C31622777   3.149   7.385   3.261 -0.0308 -0.0863  0.0587
  170POPC  H16X22778   3.104   7.283   3.264  1.3197 -0.6698  1.1581
  170POPC  H16Y22779   3.086   7.443   3.190 -1.4033 -0.7185  0.7145
  170POPC  H16Z22780   3.130   7.429   3.361 -0.0353  1.6296 -0.6607
  171POPC     N22781   6.054   5.810   2.414 -0.0813 -1.2350 -0.2006
  171POPC   C1222782   6.010   5.674   2.361  0.0446  0.1620  0.6276
  171POPC  H12A22783   6.086   5.599   2.382 -1.2498 -1.4084 -0.0879
  171POPC  H12B22784   6.004   5.674   2.254 -1.9829  2.0425  0.6822
  171POPC   C1322785   6.181   5.853   2.355 -0.6375 -0.1007 -0.3774
  171POPC  H13A22786   6.174   5.867   2.248 -3.7613  0.7512 -0.1400
  171POPC  H13B22787   6.209   5.948   2.398 -1.2219  0.0429 -0.3103
  171POPC  H13C22788   6.264   5.786   2.374 -1.6713 -1.2598  0.1509
  171POPC   C1422789   5.956   5.919   2.373 -0.2476  0.3756 -0.0251
  171POPC  H14A22790   5.986   6.019   2.401 -0.6614  0.1929  1.1102
  171POPC  H14B22791   5.955   5.924   2.265  3.7374 -0.1079 -0.2277
  171POPC  H14C22792   5.861   5.896   2.419 -0.0930  1.8279  1.0961
  171POPC   C1522793   6.065   5.807   2.568  0.0282 -0.3061 -0.0067
  171POPC  H15A22794   5.970   5.788   2.616 -0.6331  2.5809  0.0257
  171POPC  H15B22795   6.100   5.900   2.611  0.9111  0.1197 -1.5897
  171POPC  H15C22796   6.147   5.743   2.597  0.9604  0.5270 -0.7372
  171POPC   C1122797   5.881   5.614   2.422  0.4278  0.6815  0.2872
  171POPC  H11A22798   5.883   5.618   2.533 -1.6910 -0.3093  0.4095
  171POPC  H11B22799   5.886   5.505   2.400 -0.9597  0.4994  0.8225
  171POPC     P22800   5.632   5.613   2.360 -0.1811 -0.1651 -0.1081
  171POPC   O1322801   5.644   5.488   2.289  0.3367  0.6024 -1.0623
  171POPC   O1422802   5.536   5.708   2.289 -0.2719  0.4111 -0.5081
  171POPC   O1222803   5.770   5.679   2.364 -0.2951 -0.5219 -0.3847
  171POPC   O1122804   5.592   5.591   2.513  0.0632 -0.3889  0.4398
  171POPC    C122805   5.647   5.487   2.587 -0.3397  0.8075 -0.6601
  171POPC    HA22806   5.664   5.531   2.688  0.9865 -0.6427 -0.2224
  171POPC    HB22807   5.745   5.447   2.555 -1.0198 -1.3920 -0.1334
  171POPC    C222808   5.543   5.378   2.603  0.5160  0.4161  0.4217
  171POPC    HS22809   5.517   5.325   2.509 -3.3520  0.2622  1.4229
  171POPC   O2122810   5.434   5.444   2.651 -0.2912 -0.3163  0.5622
  171POPC   C2122811   5.316   5.371   2.656 -0.3051  0.0659 -0.0408
  171POPC   O2222812   5.305   5.266   2.600  0.2392  0.6956 -0.0249
  171POPC   C2222813   5.216   5.440   2.743 -0.0336  0.4733  0.3201
  171POPC   H2R22814   5.138   5.482   2.676  2.1205 -0.1790 -2.7877
  171POPC   H2S22815   5.270   5.522   2.794  0.0202  1.5521 -1.4029
  171POPC    C322816   5.597   5.261   2.694  0.7051 -0.2196 -0.1780
  171POPC    HX22817   5.677   5.214   2.634  0.8567 -0.2463  0.0433
  171POPC    HY22818   5.519   5.182   2.704  0.3510  0.2274  0.7614
  171POPC   O3122819   5.622   5.311   2.831  0.1441 -0.1438 -0.0897
  171POPC   C3122820   5.734   5.270   2.891  0.1671 -0.5591  0.7089
  171POPC   O3222821   5.817   5.196   2.841  0.3688 -0.6746 -0.6034
  171POPC   C3222822   5.739   5.327   3.033  0.1764 -0.2767 -0.1018
  171POPC   H2X22823   5.784   5.249   3.098  0.0156 -0.1805  0.1250
  171POPC   H2Y22824   5.637   5.337   3.075  0.0031 -0.4621 -0.4674
  171POPC   C2322825   5.157   5.341   2.839  0.5555 -0.0519  0.3491
  171POPC   H3R22826   5.111   5.256   2.785  2.1785  1.2920 -3.4980
  171POPC   H3S22827   5.078   5.391   2.899  1.6090  0.8962  0.9864
  171POPC   C2422828   5.261   5.270   2.928 -0.2781  0.5735 -0.0030
  171POPC   H4R22829   5.320   5.203   2.861  0.6270  1.0059  0.3553
  171POPC   H4S22830   5.202   5.201   2.993 -1.3694 -1.6644 -3.0829
  171POPC   C2522831   5.350   5.363   3.010  0.3272  0.8990 -0.0018
  171POPC   H5R22832   5.403   5.436   2.944 -2.9581  1.9376 -1.7591
  171POPC   H5S22833   5.423   5.308   3.072 -1.9445 -2.3712  0.0410
  171POPC   C2622834   5.268   5.429   3.114 -0.1285  0.1272  0.1331
  171POPC   H6R22835   5.166   5.384   3.116  0.5328 -1.4912  2.4331
  171POPC   H6S22836   5.249   5.536   3.091 -1.3200  0.0074  0.4578
  171POPC   C2722837   5.301   5.400   3.263  0.2374 -0.4359 -0.6299
  171POPC   H7R22838   5.405   5.435   3.279  0.0674 -0.0460 -0.3495
  171POPC   H7S22839   5.307   5.289   3.262  0.5699 -0.4264 -2.0972
  171POPC   C2822840   5.201   5.446   3.374  0.8686 -0.0106 -0.2297
  171POPC   H8R22841   5.195   5.556   3.380 -0.7143 -0.1414  1.6211
  171POPC   H8S22842   5.243   5.426   3.475  0.0174  1.9524  0.5521
  171POPC   C2922843   5.068   5.378   3.355  0.7785 -0.1145 -0.4065
  171POPC   H9122844   5.066   5.272   3.381  1.4234 -0.8253 -2.9995
  171POPC  C21022845   4.954   5.437   3.311  0.1585 -0.0682 -0.6508
  171POPC  H10122846   4.862   5.377   3.308 -0.5578  0.9214  0.4925
  171POPC  C21122847   4.942   5.576   3.252 -0.1326  0.3488 -0.4436
  171POPC  H11R22848   4.883   5.569   3.158 -0.9862  1.0756  0.0216
  171POPC  H11S22849   5.041   5.620   3.226 -0.4800  0.2541 -2.0870
  171POPC  C21222850   4.866   5.679   3.346  0.0165  0.1245 -0.5430
  171POPC  H12R22851   4.767   5.643   3.381 -1.6400  2.1633 -2.7929
  171POPC  H12S22852   4.861   5.781   3.302  3.1795  1.2933  1.4732
  171POPC  C21322853   4.942   5.707   3.477  0.5907  0.7463  0.3926
  171POPC  H13R22854   5.050   5.694   3.453  0.0592 -1.0152 -1.3154
  171POPC  H13S22855   4.911   5.632   3.553  1.6671  0.5059  0.6051
  171POPC  C21422856   4.916   5.844   3.542 -0.2338  0.5323  0.8196
  171POPC  H14R22857   4.808   5.864   3.558 -0.2051 -0.5685  2.6301
  171POPC  H14S22858   4.951   5.924   3.473  1.2247  0.2935  1.2388
  171POPC  C21522859   4.990   5.870   3.674 -0.4439 -0.1930 -0.3381
  171POPC  H15R22860   5.097   5.842   3.662 -1.0380 -2.5281 -0.6512
  171POPC  H15S22861   4.946   5.809   3.756 -0.1280  0.8437  0.6338
  171POPC  C21622862   4.992   6.019   3.711 -0.0206  0.3499 -0.0282
  171POPC  H16R22863   4.884   6.045   3.702 -0.0044  0.2937 -0.3897
  171POPC  H16S22864   5.030   6.084   3.630 -0.7829  1.2325  0.3064
  171POPC  C21722865   5.052   6.045   3.849  0.8473  0.2268  0.3227
  171POPC  H17R22866   5.032   6.152   3.874 -0.6737  0.1252 -0.3357
  171POPC  H17S22867   5.162   6.037   3.835  0.7486  0.9109 -0.9770
  171POPC  C21822868   4.996   5.960   3.963 -0.2014 -0.1295 -0.0850
  171POPC  H18R22869   5.023   5.852   3.955  0.6912 -0.0370  1.2903
  171POPC  H18S22870   4.887   5.976   3.976 -0.0439  0.9215  0.0256
  171POPC  H18T22871   5.039   6.000   4.057  0.4636  1.0731 -0.8832
  171POPC   C3322872   5.810   5.468   3.043  0.0061 -0.2701 -0.0746
  171POPC   H3X22873   5.740   5.553   3.029  0.1920 -0.2849 -1.1782
  171POPC   H3Y22874   5.888   5.476   2.963 -1.7387  0.7765 -1.7601
  171POPC   C3422875   5.880   5.490   3.177  0.1989  0.0437 -0.1106
  171POPC   H4X22876   5.932   5.588   3.178  0.5532  0.0076  3.9462
  171POPC   H4Y22877   5.958   5.413   3.195  1.3582  1.4146  0.9951
  171POPC   C3522878   5.772   5.494   3.285  0.0794  0.3039  0.0045
  171POPC   H5X22879   5.710   5.402   3.286  1.0420 -0.4076 -1.7270
  171POPC   H5Y22880   5.712   5.585   3.264  0.9564  0.9568  0.2750
  171POPC   C3622881   5.839   5.507   3.424  0.1619 -0.0205  0.3866
  171POPC   H6X22882   5.929   5.572   3.415  0.7877 -0.9702 -0.4668
  171POPC   H6Y22883   5.886   5.415   3.464  0.4860  0.2853  0.7148
  171POPC   C3722884   5.736   5.585   3.513  0.7325  0.2261  0.2354
  171POPC   H7X22885   5.651   5.517   3.535  0.7411 -0.7136 -2.3414
  171POPC   H7Y22886   5.705   5.683   3.470  2.3361 -0.3180 -2.4129
  171POPC   C3822887   5.797   5.620   3.645 -0.8961 -0.4760  0.1565
  171POPC   H8X22888   5.855   5.715   3.646 -1.2879 -0.2193 -0.6479
  171POPC   H8Y22889   5.868   5.542   3.679 -0.8405  0.2901  1.9641
  171POPC   C3922890   5.694   5.632   3.762 -0.0466 -0.5924 -0.8546
  171POPC   H9X22891   5.651   5.532   3.783  1.1389 -0.6126  1.8540
  171POPC   H9Y22892   5.619   5.706   3.727  1.2402  0.8624 -0.6324
  171POPC  C31022893   5.767   5.677   3.892 -0.2006 -0.2687 -0.3233
  171POPC  H10X22894   5.808   5.777   3.865  0.3947  0.0587  1.6356
  171POPC  H10Y22895   5.852   5.612   3.921 -0.3256  0.4656  1.8438
  171POPC  C31122896   5.681   5.696   4.018  0.0791 -0.3750  0.1218
  171POPC  H11X22897   5.649   5.595   4.050  0.6997 -0.2277  1.2542
  171POPC  H11Y22898   5.586   5.749   3.994 -0.0674 -0.2740  0.9039
  171POPC  C31222899   5.740   5.782   4.132  0.5726 -0.2705  0.5941
  171POPC  H12X22900   5.659   5.789   4.208  1.1288 -0.9843  1.2844
  171POPC  H12Y22901   5.743   5.885   4.092 -2.5029 -0.3656 -0.1009
  171POPC  C31322902   5.868   5.726   4.190 -0.7863  0.2265 -0.0355
  171POPC  H13X22903   5.945   5.716   4.111 -1.9683 -1.5687 -1.0436
  171POPC  H13Y22904   5.832   5.629   4.229 -2.2981  0.7146 -0.1483
  171POPC  C31422905   5.920   5.815   4.307 -0.2977 -0.7294 -0.4147
  171POPC  H14X22906   5.828   5.852   4.356  1.2589  0.8869  1.4628
  171POPC  H14Y22907   5.972   5.902   4.262 -1.0226  0.4225  0.9237
  171POPC  C31522908   6.009   5.741   4.411 -0.2594 -0.7927  0.9474
  171POPC  H15X22909   5.944   5.674   4.472  0.0993 -1.1417  0.9462
  171POPC  H15Y22910   6.048   5.816   4.483  0.5707 -2.0961  1.8983
  171POPC  C31622911   6.129   5.664   4.357 -0.1781 -0.5976  0.2679
  171POPC  H16X22912   6.202   5.732   4.308 -0.1663  0.3112  1.5152
  171POPC  H16Y22913   6.098   5.583   4.286  0.0490  0.8189 -1.5174
  171POPC  H16Z22914   6.187   5.606   4.432  1.3309 -0.7210 -0.9489
  172POPC     N22915   0.836   4.865   1.809  0.1086 -0.0011  0.1859
  172POPC   C1222916   0.891   4.907   1.942 -0.1440 -0.4028  0.2420
  172POPC  H12A22917   0.937   5.005   1.937  0.5184 -0.6923  0.5546
  172POPC  H12B22918   0.959   4.832   1.979  0.9969  0.9593  1.0369
  172POPC   C1322919   0.943   4.821   1.712  0.2685  0.3497 -0.5986
  172POPC  H13A22920   0.903   4.775   1.623 -1.0258 -1.4662  0.8390
  172POPC  H13B22921   1.011   4.904   1.698  0.4660  0.3961  0.5507
  172POPC  H13C22922   1.005   4.749   1.764  0.0766  0.7929  0.2759
  172POPC   C1422923   0.747   4.743   1.819 -0.2551 -0.0573 -0.6819
  172POPC  H14A22924   0.697   4.716   1.727 -1.5208  2.2440 -0.7363
  172POPC  H14B22925   0.809   4.661   1.851 -1.8091 -0.6400  1.0655
  172POPC  H14C22926   0.688   4.767   1.907  0.2067 -1.9081  0.1827
  172POPC   C1522927   0.750   4.977   1.742 -0.5647  0.0429 -0.4107
  172POPC  H15A22928   0.703   4.933   1.656  1.7490  0.0345 -1.7500
  172POPC  H15B22929   0.811   5.052   1.694  0.3565  0.1768  0.8946
  172POPC  H15C22930   0.676   5.001   1.817  0.1355 -1.6197  0.8871
  172POPC   C1122931   0.779   4.931   2.049  0.3693  0.4512  0.0452
  172POPC  H11A22932   0.817   4.954   2.151 -1.4946 -0.6385  1.0688
  172POPC  H11B22933   0.724   4.835   2.065  1.3723 -0.0657  0.5067
  172POPC     P22934   0.723   5.185   2.013 -0.3632 -0.1008 -0.3883
  172POPC   O1322935   0.651   5.274   1.918 -0.2090 -0.4192 -0.4145
  172POPC   O1422936   0.866   5.197   1.993 -0.1423 -0.0047  0.7831
  172POPC   O1222937   0.682   5.029   2.018 -0.0770 -0.4375  0.1278
  172POPC   O1122938   0.696   5.226   2.165  0.2862  0.1734  0.1176
  172POPC    C122939   0.777   5.329   2.220  0.7120  0.1334 -0.4077
  172POPC    HA22940   0.755   5.425   2.168  0.6522  1.7500  2.3928
  172POPC    HB22941   0.883   5.303   2.199  1.2408  2.0745 -0.3073
  172POPC    C222942   0.766   5.340   2.375 -0.0398 -0.1662 -0.3879
  172POPC    HS22943   0.846   5.396   2.427 -1.7968  1.4514  0.7291
  172POPC   O2122944   0.753   5.206   2.429 -0.0109  0.3678 -0.4556
  172POPC   C2122945   0.862   5.131   2.412 -1.0918 -0.1569 -0.0425
  172POPC   O2222946   0.969   5.169   2.371 -0.4150 -0.4469  0.1259
  172POPC   C2222947   0.837   4.977   2.425  0.4190 -0.0153  0.1080
  172POPC   H2R22948   0.928   4.931   2.383  0.0061 -1.5791  0.8329
  172POPC   H2S22949   0.750   4.959   2.359  1.0945  1.1577 -1.1348
  172POPC    C322950   0.639   5.421   2.413  0.1102  0.1212  0.5737
  172POPC    HX22951   0.553   5.355   2.389 -1.3262  2.2957 -0.5642
  172POPC    HY22952   0.640   5.503   2.338 -0.0359  0.3333  0.8041
  172POPC   O3122953   0.638   5.470   2.553  0.5363  0.0942 -0.7593
  172POPC   C3122954   0.525   5.542   2.575 -0.0674  0.2525 -0.2815
  172POPC   O3222955   0.436   5.563   2.495 -0.3735 -0.5404 -0.7633
  172POPC   C3222956   0.537   5.610   2.714 -0.2962  1.4339  0.3980
  172POPC   H2X22957   0.629   5.673   2.709  0.4597  0.2713 -1.9801
  172POPC   H2Y22958   0.560   5.531   2.788  1.5733  0.0815 -1.4941
  172POPC   C2322959   0.823   4.933   2.571  0.5406 -0.1634 -0.2853
  172POPC   H3R22960   0.915   4.958   2.629 -1.0884  1.7233  1.7050
  172POPC   H3S22961   0.810   4.823   2.578  0.1154 -0.1999 -1.3879
  172POPC   C2422962   0.701   5.008   2.644  0.9034 -0.2439 -0.2499
  172POPC   H4R22963   0.616   5.007   2.572  2.2213  0.8929 -1.8977
  172POPC   H4S22964   0.721   5.116   2.663  0.2970 -0.2507  0.4795
  172POPC   C2522965   0.673   4.950   2.777  0.2200 -0.1687 -0.1612
  172POPC   H5R22966   0.757   4.938   2.849 -0.0715 -1.9631 -0.0603
  172POPC   H5S22967   0.645   4.844   2.759 -0.0731  0.0235 -0.8644
  172POPC   C2622968   0.558   5.025   2.848  0.4791  0.2224 -0.2357
  172POPC   H6R22969   0.530   4.972   2.941  0.3822  1.4576  0.4640
  172POPC   H6S22970   0.465   5.009   2.789  0.7154  2.2364 -1.2691
  172POPC   C2722971   0.573   5.170   2.900  0.3267 -0.7416  0.2722
  172POPC   H7R22972   0.622   5.225   2.816 -0.6640  1.0460  0.8154
  172POPC   H7S22973   0.656   5.183   2.972  1.2651  0.1575 -0.9157
  172POPC   C2822974   0.450   5.245   2.937 -0.5574  0.6929 -0.1430
  172POPC   H8R22975   0.370   5.201   2.874  1.3993 -0.7899 -1.7271
  172POPC   H8S22976   0.458   5.352   2.907 -3.2253  1.1324  0.4787
  172POPC   C2922977   0.415   5.231   3.080  0.8204 -0.0916 -0.0407
  172POPC   H9122978   0.344   5.149   3.099 -0.3186  0.5892 -1.2177
  172POPC  C21022979   0.473   5.307   3.175 -0.7181  0.4005 -0.2013
  172POPC  H10122980   0.447   5.291   3.280  0.7000 -0.3383  0.0651
  172POPC  C21122981   0.578   5.417   3.145  0.5095 -0.0741  0.6190
  172POPC  H11R22982   0.537   5.477   3.061 -0.9140 -1.9648 -0.1287
  172POPC  H11S22983   0.671   5.372   3.103 -1.3072 -2.2343 -1.4282
  172POPC  C21222984   0.622   5.507   3.257 -0.3626 -0.7639 -0.9475
  172POPC  H12R22985   0.541   5.562   3.309  0.7736 -0.6143  0.7438
  172POPC  H12S22986   0.690   5.589   3.226 -1.5326  1.6300  2.2080
  172POPC  C21322987   0.713   5.438   3.367 -0.1419 -0.6366  0.3187
  172POPC  H13R22988   0.815   5.429   3.324 -0.2514 -0.1213 -0.0533
  172POPC  H13S22989   0.672   5.336   3.382 -0.3377 -0.4426  1.1747
  172POPC  C21422990   0.706   5.504   3.509 -0.4076 -0.2363 -0.6413
  172POPC  H14R22991   0.598   5.519   3.530 -0.1420  0.0455  0.5995
  172POPC  H14S22992   0.764   5.596   3.486  2.1428 -1.7108 -0.5585
  172POPC  C21522993   0.789   5.427   3.619 -0.4863 -0.2632 -0.0514
  172POPC  H15R22994   0.782   5.492   3.709 -0.8672  0.0330 -0.2918
  172POPC  H15S22995   0.893   5.421   3.580 -1.1017 -0.2048 -1.8063
  172POPC  C21622996   0.739   5.285   3.653 -0.9121  0.1674 -0.6435
  172POPC  H16R22997   0.756   5.221   3.564 -1.0262  1.1553 -1.3953
  172POPC  H16S22998   0.631   5.299   3.672 -0.5488 -0.5412  2.7003
  172POPC  C21722999   0.811   5.234   3.779  0.4011 -0.3371 -0.8799
  172POPC  H17R23000   0.788   5.293   3.870  1.4177  0.7916 -1.3289
  172POPC  H17S23001   0.918   5.243   3.753  1.4880 -1.3508  2.6781
  172POPC  C21823002   0.771   5.089   3.808  0.5116 -0.9177 -0.5836
  172POPC  H18R23003   0.663   5.081   3.830  0.4085  0.4038 -0.5311
  172POPC  H18S23004   0.795   5.022   3.722 -0.5895  0.0260 -1.6479
  172POPC  H18T23005   0.823   5.046   3.896 -1.2200  0.2564  1.0713
  172POPC   C3323006   0.425   5.705   2.749 -0.1717  0.5057  0.0087
  172POPC   H3X23007   0.329   5.651   2.760 -0.0717  0.7654  2.8544
  172POPC   H3Y23008   0.400   5.776   2.667 -0.8989 -1.0580 -1.1924
  172POPC   C3423009   0.461   5.776   2.883  0.5560 -0.2963 -0.8358
  172POPC   H4X23010   0.569   5.805   2.889  0.7709 -1.3167  1.5532
  172POPC   H4Y23011   0.434   5.703   2.962  0.1634  0.0510 -0.6506
  172POPC   C3523012   0.390   5.911   2.912  0.4939 -0.7324 -0.4919
  172POPC   H5X23013   0.418   5.985   2.834  1.2396  0.0807  0.5400
  172POPC   H5Y23014   0.440   5.952   3.002  0.9981 -0.8860 -0.6965
  172POPC   C3623015   0.246   5.891   2.948  0.8984 -0.0670  0.9111
  172POPC   H6X23016   0.226   5.805   3.016 -0.3617 -2.3338 -2.1124
  172POPC   H6Y23017   0.180   5.877   2.860 -0.9586  1.6595  1.9331
  172POPC   C3723018   0.188   6.018   3.019 -0.0866 -0.1322  0.1296
  172POPC   H7X23019   0.078   6.036   3.012  0.3649  2.9797 -0.3514
  172POPC   H7Y23020   0.243   6.108   2.986  1.5075 -0.4796  1.6718
  172POPC   C3823021   0.205   6.022   3.174 -0.6202  0.2732  0.2644
  172POPC   H8X23022   0.309   5.997   3.203 -1.1666 -1.8302  0.5222
  172POPC   H8Y23023   0.127   5.954   3.213  0.1384  0.1850  1.6839
  172POPC   C3923024   0.171   6.166   3.212  0.4815 -0.7720  0.0299
  172POPC   H9X23025   0.066   6.186   3.182  0.9765  1.6750 -0.2851
  172POPC   H9Y23026   0.231   6.244   3.160  0.0837  0.7573  1.7402
  172POPC  C31023027   0.197   6.187   3.366 -0.0198 -0.2136  0.3198
  172POPC  H10X23028   0.304   6.213   3.375  0.2084 -0.7300 -0.7576
  172POPC  H10Y23029   0.180   6.095   3.427 -1.5898  0.4785  0.9871
  172POPC  C31123030   0.132   6.304   3.439  0.4354  0.0635  0.3031
  172POPC  H11X23031   0.021   6.297   3.446  0.5075 -1.8089 -0.0621
  172POPC  H11Y23032   0.152   6.390   3.371  0.9218 -2.0574 -2.3822
  172POPC  C31223033   0.179   6.344   3.583  0.0409 -0.3195  0.3236
  172POPC  H12X23034   0.192   6.255   3.648  0.1988 -0.0478  0.6698
  172POPC  H12Y23035   0.093   6.399   3.627  0.0279  0.1883 -0.3301
  172POPC  C31323036   0.309   6.428   3.584 -0.1955  0.3945  0.1850
  172POPC  H13X23037   0.318   6.499   3.499  0.9664  1.8886  1.4960
  172POPC  H13Y23038   0.399   6.363   3.575 -0.1015  0.0026  3.0111
  172POPC  C31423039   0.320   6.498   3.720  0.1176 -0.0431 -0.5880
  172POPC  H14X23040   0.232   6.564   3.736 -0.0309 -0.8413  2.7306
  172POPC  H14Y23041   0.410   6.563   3.715  0.5292 -0.4614  0.7178
  172POPC  C31523042   0.347   6.400   3.841 -0.6567  0.5074 -0.1711
  172POPC  H15X23043   0.422   6.328   3.801 -1.4953  1.3442 -3.5519
  172POPC  H15Y23044   0.263   6.332   3.866 -0.5644 -0.3603 -2.0196
  172POPC  C31623045   0.412   6.477   3.963  0.7302 -0.0154 -0.3002
  172POPC  H16X23046   0.342   6.479   4.049  0.6770 -0.0664 -0.3428
  172POPC  H16Y23047   0.411   6.583   3.930  0.1883  0.0090 -0.2051
  172POPC  H16Z23048   0.506   6.434   4.004  0.0316 -1.3023 -0.0052
  173POPC     N23049   1.555   6.520   1.880 -0.3158 -0.1430  0.2069
  173POPC   C1223050   1.511   6.613   1.988  0.5314 -1.0094  0.0478
  173POPC  H12A23051   1.593   6.627   2.057 -0.3698  1.2882  0.7609
  173POPC  H12B23052   1.437   6.556   2.043 -0.3312 -1.7319 -1.7797
  173POPC   C1323053   1.625   6.398   1.930 -0.1360  0.7965  0.3075
  173POPC  H13A23054   1.567   6.349   2.007 -0.8252  0.3499 -0.4807
  173POPC  H13B23055   1.647   6.319   1.860 -1.2834 -0.5702  1.4332
  173POPC  H13C23056   1.720   6.414   1.979 -0.3666 -1.1901  1.5194
  173POPC   C1423057   1.441   6.475   1.799  0.3614 -0.6135 -0.3247
  173POPC  H14A23058   1.468   6.407   1.719  1.9358 -0.1831 -0.1881
  173POPC  H14B23059   1.369   6.431   1.866  0.5596  1.5772  1.4505
  173POPC  H14C23060   1.386   6.556   1.752 -0.8782 -1.4671 -0.3809
  173POPC   C1523061   1.651   6.584   1.788 -0.1615 -0.5422  0.1449
  173POPC  H15A23062   1.598   6.655   1.725 -0.6433  0.1639  1.3214
  173POPC  H15B23063   1.690   6.506   1.725  0.3689  0.5973 -0.9919
  173POPC  H15C23064   1.736   6.623   1.841 -0.4966 -0.5869  0.7193
  173POPC   C1123065   1.459   6.751   1.947  0.2487 -0.3658  0.4890
  173POPC  H11A23066   1.370   6.743   1.880 -0.2524 -1.3016  1.2407
  173POPC  H11B23067   1.537   6.809   1.893  0.9929 -2.0209 -0.2738
  173POPC     P23068   1.365   6.959   2.073  0.2576  0.1950 -0.0562
  173POPC   O1323069   1.237   6.962   2.153 -0.7467  0.3822  0.5437
  173POPC   O1423070   1.355   6.999   1.935 -0.2070 -0.3471  0.1749
  173POPC   O1223071   1.430   6.817   2.071 -0.6573  0.2076  0.1336
  173POPC   O1123072   1.481   7.041   2.148  0.1790  0.2202 -0.2890
  173POPC    C123073   1.573   6.974   2.236 -0.2584 -0.2956 -0.4878
  173POPC    HA23074   1.646   7.055   2.255 -1.3296  0.9944 -1.7330
  173POPC    HB23075   1.614   6.887   2.181 -0.9279 -0.2969 -0.9887
  173POPC    C223076   1.514   6.940   2.372 -0.0866  0.4751  0.1415
  173POPC    HS23077   1.451   6.851   2.355 -1.6234  1.2839  1.2988
  173POPC   O2123078   1.442   7.057   2.425 -0.4110  0.0736  0.1827
  173POPC   C2123079   1.340   7.026   2.499 -0.7702  0.5501 -0.1133
  173POPC   O2223080   1.294   6.915   2.517 -0.0093 -0.0070 -0.3169
  173POPC   C2223081   1.284   7.150   2.563 -0.2728 -0.4983 -0.0983
  173POPC   H2R23082   1.247   7.216   2.482  1.6920  0.8789  0.0403
  173POPC   H2S23083   1.373   7.201   2.607  0.0106 -0.8380 -0.2690
  173POPC    C323084   1.634   6.901   2.464 -0.3375  0.2924 -0.0941
  173POPC    HX23085   1.689   6.993   2.495  0.6255 -0.6326  1.0349
  173POPC    HY23086   1.705   6.830   2.417 -2.4525 -1.1530 -1.2634
  173POPC   O3123087   1.587   6.853   2.594  0.6038  0.0939 -0.4413
  173POPC   C3123088   1.552   6.727   2.596 -0.1829  0.6829  0.1298
  173POPC   O3223089   1.550   6.656   2.499 -0.1349  1.1136 -0.2007
  173POPC   C3223090   1.542   6.679   2.742 -0.5370  0.7742 -0.1567
  173POPC   H2X23091   1.593   6.751   2.809  1.0473 -1.5253  1.2384
  173POPC   H2Y23092   1.584   6.577   2.755  0.8879  1.3752  0.1527
  173POPC   C2323093   1.181   7.118   2.675 -0.0953 -0.1691 -0.7622
  173POPC   H3R23094   1.222   7.045   2.748  0.6527  0.4697 -0.5305
  173POPC   H3S23095   1.089   7.074   2.630 -0.4289  0.6450 -0.9056
  173POPC   C2423096   1.130   7.245   2.746 -0.0385  0.2177 -0.4365
  173POPC   H4R23097   1.078   7.319   2.682 -1.3400 -1.0933 -0.9411
  173POPC   H4S23098   1.213   7.285   2.809 -0.7191 -2.1782  2.1698
  173POPC   C2523099   1.027   7.190   2.856  0.7522 -0.3699 -0.4495
  173POPC   H5R23100   1.070   7.100   2.904  0.0778 -0.1363  0.6357
  173POPC   H5S23101   0.933   7.151   2.814 -1.7243  1.6433  2.7168
  173POPC   C2623102   0.981   7.292   2.963 -0.0724 -0.1699  0.0078
  173POPC   H6R23103   0.916   7.352   2.896  1.6978  0.0268 -1.6376
  173POPC   H6S23104   1.074   7.346   2.991  0.8159 -0.0961 -2.7276
  173POPC   C2723105   0.914   7.232   3.088  0.7624  0.4121  0.2803
  173POPC   H7R23106   0.958   7.133   3.111 -0.4600 -0.4517 -0.9105
  173POPC   H7S23107   0.810   7.212   3.053  1.2142  2.5153 -2.6468
  173POPC   C2823108   0.906   7.321   3.215  0.2888 -0.7976 -0.4758
  173POPC   H8R23109   0.913   7.429   3.190 -0.5901  0.5574  4.1694
  173POPC   H8S23110   0.996   7.303   3.278  0.2503 -0.8636 -0.4393
  173POPC   C2923111   0.782   7.302   3.292  0.5886  0.8896  0.0974
  173POPC   H9123112   0.692   7.350   3.250 -0.0094  0.7383  1.1741
  173POPC  C21023113   0.753   7.226   3.403 -0.0505  0.8708 -0.0056
  173POPC  H10123114   0.645   7.232   3.424  0.3097  0.7253  2.2052
  173POPC  C21123115   0.850   7.135   3.481 -0.9521  0.5119 -0.0317
  173POPC  H11R23116   0.872   7.184   3.578  0.8041  0.9138 -0.6112
  173POPC  H11S23117   0.948   7.127   3.430  0.8947 -1.3415  3.3857
  173POPC  C21223118   0.810   6.988   3.488  0.0136  0.3791  0.8349
  173POPC  H12R23119   0.703   6.976   3.513  0.2837 -3.0545  0.8377
  173POPC  H12S23120   0.880   6.939   3.560  2.1936 -0.9518 -1.9844
  173POPC  C21323121   0.829   6.908   3.355 -0.2552  0.4163 -0.4035
  173POPC  H13R23122   0.771   6.963   3.277 -1.3994 -1.2460 -0.7618
  173POPC  H13S23123   0.785   6.807   3.368  2.1474 -0.4493  1.9610
  173POPC  C21423124   0.970   6.873   3.318 -0.0548 -0.4523 -1.1396
  173POPC  H14R23125   1.014   6.834   3.412 -0.4311  1.9836  0.1277
  173POPC  H14S23126   1.038   6.955   3.286 -0.6193  0.1599 -0.7842
  173POPC  C21523127   0.982   6.780   3.203 -0.6560  0.0735 -0.7287
  173POPC  H15R23128   0.919   6.695   3.237  1.4104 -0.8315  1.0660
  173POPC  H15S23129   1.080   6.728   3.192 -0.6448 -0.6617  2.1093
  173POPC  C21623130   0.947   6.837   3.069 -0.3885 -0.0955  0.2133
  173POPC  H16R23131   1.010   6.927   3.054 -0.7402 -0.1033 -1.5727
  173POPC  H16S23132   0.838   6.860   3.072 -0.3105  0.2202  0.9032
  173POPC  C21723133   0.966   6.736   2.959  0.5783  0.5068  0.5287
  173POPC  H17R23134   0.914   6.642   2.989  2.8947 -1.2588 -0.6898
  173POPC  H17S23135   1.073   6.706   2.951 -0.0298 -1.8265  0.4073
  173POPC  C21823136   0.929   6.790   2.822 -0.1947 -0.1829 -0.2090
  173POPC  H18R23137   0.826   6.832   2.815  0.2409  0.6570 -2.7008
  173POPC  H18S23138   0.943   6.721   2.737  1.1337 -0.0528 -0.1273
  173POPC  H18T23139   1.005   6.868   2.799 -0.1189  0.5800  2.3257
  173POPC   C3323140   1.396   6.681   2.779  0.1520  0.1402 -0.3383
  173POPC   H3X23141   1.376   6.600   2.853 -0.0788 -2.6579 -3.2238
  173POPC   H3Y23142   1.326   6.658   2.696  0.0164 -2.8975  0.4787
  173POPC   C3423143   1.354   6.821   2.827 -0.3805  0.3577 -0.3156
  173POPC   H4X23144   1.244   6.834   2.819 -0.2013  2.5578  0.2011
  173POPC   H4Y23145   1.401   6.900   2.765  1.9268  1.3868  2.5305
  173POPC   C3523146   1.387   6.842   2.980 -0.3528  0.7441 -0.4718
  173POPC   H5X23147   1.498   6.851   2.985 -0.0685 -1.6411 -1.0381
  173POPC   H5Y23148   1.353   6.752   3.036  2.8632 -1.3030 -1.5259
  173POPC   C3623149   1.319   6.966   3.035 -0.7592 -0.3993 -0.2231
  173POPC   H6X23150   1.208   6.960   3.030 -0.6968 -3.9430  0.4131
  173POPC   H6Y23151   1.361   7.049   2.975  0.5156 -2.3426 -2.1355
  173POPC   C3723152   1.369   6.968   3.182 -0.2067 -0.4203  0.4469
  173POPC   H7X23153   1.479   6.960   3.195  0.0661 -1.1686 -1.8452
  173POPC   H7Y23154   1.318   6.884   3.234  1.2393 -1.8091 -0.2806
  173POPC   C3823155   1.314   7.101   3.248  0.5400  0.0553  0.4890
  173POPC   H8X23156   1.212   7.124   3.210  0.0229 -2.1074  0.4135
  173POPC   H8Y23157   1.393   7.172   3.216  1.7231 -1.0990  0.7314
  173POPC   C3923158   1.288   7.101   3.402 -0.1339  0.0493  0.6049
  173POPC   H9X23159   1.279   6.993   3.428  0.0495  0.1066  0.9045
  173POPC   H9Y23160   1.194   7.154   3.427 -0.3831  2.4245 -4.1664
  173POPC  C31023161   1.410   7.150   3.464  0.1297  0.0900 -0.3108
  173POPC  H10X23162   1.456   7.233   3.406  0.8233 -0.2407 -0.2462
  173POPC  H10Y23163   1.483   7.068   3.482  0.6135  0.8256  1.2981
  173POPC  C31123164   1.394   7.203   3.605  0.2020 -0.1463 -0.3044
  173POPC  H11X23165   1.320   7.286   3.610  0.0328 -0.2953 -0.3272
  173POPC  H11Y23166   1.496   7.235   3.634  0.6232 -2.4724  1.0218
  173POPC  C31223167   1.365   7.096   3.719 -0.0647  0.0530 -0.6082
  173POPC  H12X23168   1.394   7.138   3.817 -1.7255 -0.9585  0.3718
  173POPC  H12Y23169   1.424   7.004   3.701  0.3445  0.2941 -0.5088
  173POPC  C31323170   1.217   7.059   3.749  0.0534 -0.3195  0.2998
  173POPC  H13X23171   1.178   7.009   3.658  3.4703  0.2333 -1.6623
  173POPC  H13Y23172   1.163   7.155   3.768  0.0007 -0.5701  1.4392
  173POPC  C31423173   1.198   6.969   3.876  0.3466  0.5430  0.3121
  173POPC  H14X23174   1.258   6.876   3.869 -1.8312 -0.8126 -2.2798
  173POPC  H14Y23175   1.089   6.946   3.881 -0.0280  2.2552  0.8993
  173POPC  C31523176   1.237   7.047   4.012 -0.4832  0.5145 -0.3838
  173POPC  H15X23177   1.168   7.133   4.029  0.9577  1.4363  1.0944
  173POPC  H15Y23178   1.345   7.070   4.017 -0.0646 -1.0997 -1.3099
  173POPC  C31623179   1.214   6.955   4.138  0.6079  0.3618  0.3952
  173POPC  H16X23180   1.299   6.884   4.134 -0.0505 -0.4432  0.5065
  173POPC  H16Y23181   1.121   6.898   4.116  2.4738 -2.6261 -0.3401
  173POPC  H16Z23182   1.219   7.009   4.234  3.2249  3.5964 -1.3284
  174POPC     N23183   1.297   5.081   1.585  0.1464 -0.9301 -0.0202
  174POPC   C1223184   1.353   5.126   1.718 -0.3425  0.3208  0.3845
  174POPC  H12A23185   1.402   5.221   1.706 -0.2136  0.1239 -0.8262
  174POPC  H12B23186   1.439   5.061   1.730 -2.0327 -2.3515 -0.8079
  174POPC   C1323187   1.274   4.938   1.581  0.1548  0.3728 -0.2110
  174POPC  H13A23188   1.189   4.907   1.640 -0.9804 -2.0497 -2.8719
  174POPC  H13B23189   1.245   4.895   1.486 -3.3001  0.3237  0.7062
  174POPC  H13C23190   1.361   4.880   1.608 -1.0156 -0.4404  2.1267
  174POPC   C1423191   1.177   5.156   1.542  0.7102 -0.0336 -0.0995
  174POPC  H14A23192   1.100   5.155   1.617  1.2414  0.0347  0.4527
  174POPC  H14B23193   1.199   5.258   1.515 -2.3306  0.1089 -2.5979
  174POPC  H14C23194   1.132   5.114   1.453  0.3086  0.8576 -0.3299
  174POPC   C1523195   1.391   5.109   1.472 -0.3163 -0.1907  0.6433
  174POPC  H15A23196   1.489   5.070   1.491 -0.2613 -0.7030 -0.5783
  174POPC  H15B23197   1.383   5.215   1.456  0.1967 -0.1303  0.7934
  174POPC  H15C23198   1.355   5.059   1.382  2.7024  1.2797 -1.5288
  174POPC   C1123199   1.266   5.143   1.840 -0.1304  0.6086  0.1965
  174POPC  H11A23200   1.194   5.226   1.825 -0.3718  1.1283  3.5228
  174POPC  H11B23201   1.329   5.181   1.923 -0.3272 -0.9488  1.0963
  174POPC     P23202   1.248   4.901   1.940 -0.3418 -0.2617  0.4868
  174POPC   O1323203   1.387   4.913   1.984 -0.3604  0.2904 -0.6121
  174POPC   O1423204   1.211   4.783   1.861 -0.2328  0.3060 -0.1979
  174POPC   O1223205   1.188   5.032   1.879 -0.7658  0.4905 -0.3171
  174POPC   O1123206   1.158   4.891   2.061 -0.1602  0.8176  0.3439
  174POPC    C123207   1.164   4.986   2.169 -0.1720  0.0997 -0.4349
  174POPC    HA23208   1.069   4.986   2.226  0.5290  0.7232  0.7537
  174POPC    HB23209   1.173   5.087   2.125  0.3463  0.3761  0.2919
  174POPC    C223210   1.276   4.958   2.272 -0.0849 -0.2636  0.2641
  174POPC    HS23211   1.368   5.000   2.226  0.0936  0.1618  1.0019
  174POPC   O2123212   1.281   4.818   2.295 -0.7023  0.3854 -0.6777
  174POPC   C2123213   1.407   4.762   2.297  0.2592 -0.5106  0.1576
  174POPC   O2223214   1.510   4.826   2.281  0.7882  0.1850  0.3299
  174POPC   C2223215   1.390   4.614   2.333  0.1954 -0.3595  0.0441
  174POPC   H2R23216   1.384   4.558   2.238  1.4972 -1.6563  0.6891
  174POPC   H2S23217   1.303   4.594   2.399 -0.2117  0.0035 -0.3806
  174POPC    C323218   1.247   5.026   2.407 -0.3832  0.5057 -0.3593
  174POPC    HX23219   1.150   4.992   2.449 -1.7002  3.5450 -0.6423
  174POPC    HY23220   1.226   5.131   2.378  2.0815  1.6261  1.5912
  174POPC   O3123221   1.351   5.003   2.506  0.4168 -0.9474 -0.0982
  174POPC   C3123222   1.450   5.098   2.514  0.5159 -0.2867  0.0663
  174POPC   O3223223   1.458   5.191   2.432 -0.2402  0.0152 -0.5931
  174POPC   C3223224   1.549   5.064   2.633 -0.4098 -0.7165 -0.7037
  174POPC   H2X23225   1.609   4.974   2.607  1.2582 -0.0498  0.6998
  174POPC   H2Y23226   1.491   5.044   2.726 -0.2105 -1.2397 -0.6874
  174POPC   C2323227   1.510   4.573   2.424 -0.6532 -0.2837  0.0769
  174POPC   H3R23228   1.600   4.629   2.391 -1.5065  0.5798 -0.8628
  174POPC   H3S23229   1.527   4.464   2.411 -3.6164 -0.8052 -0.2588
  174POPC   C2423230   1.492   4.605   2.575 -0.0056  0.2940 -0.0226
  174POPC   H4R23231   1.406   4.542   2.606  0.7929 -1.0756 -0.5134
  174POPC   H4S23232   1.470   4.713   2.592 -1.7020 -0.1252  0.6198
  174POPC   C2523233   1.613   4.571   2.663  0.4618  0.8736  0.3133
  174POPC   H5R23234   1.705   4.614   2.617  2.1088 -0.2274  2.3862
  174POPC   H5S23235   1.638   4.466   2.637  3.3529  1.5412  0.0476
  174POPC   C2623236   1.613   4.597   2.814 -0.1548  0.1482 -0.2184
  174POPC   H6R23237   1.619   4.704   2.842 -0.6145  0.3240 -0.7796
  174POPC   H6S23238   1.706   4.542   2.842 -0.8081  0.0538  2.0299
  174POPC   C2723239   1.489   4.542   2.892 -0.5068  0.3324  0.5149
  174POPC   H7R23240   1.524   4.464   2.964  0.2325  0.2421  0.0690
  174POPC   H7S23241   1.409   4.508   2.823 -0.4423  2.6291 -0.7758
  174POPC   C2823242   1.436   4.647   2.991 -0.1612  0.8363  0.1806
  174POPC   H8R23243   1.339   4.607   3.029  0.2780  0.3279  0.7926
  174POPC   H8S23244   1.413   4.728   2.920  1.9735  0.2352 -1.2981
  174POPC   C2923245   1.523   4.683   3.111  0.3774 -0.4991 -0.3453
  174POPC   H9123246   1.631   4.664   3.104  0.8601 -0.2167  3.7671
  174POPC  C21023247   1.477   4.723   3.234  0.1987 -0.0518 -0.7971
  174POPC  H10123248   1.543   4.743   3.319 -3.2058 -0.1390  2.1290
  174POPC  C21123249   1.329   4.739   3.272 -0.2903 -0.2061  0.1822
  174POPC  H11R23250   1.276   4.749   3.174  1.4975  1.8946 -0.6683
  174POPC  H11S23251   1.319   4.841   3.316  0.7308  1.3197 -2.8459
  174POPC  C21223252   1.278   4.623   3.362  0.3456 -0.4320  0.1113
  174POPC  H12R23253   1.322   4.614   3.464 -2.2117 -1.0066  1.2335
  174POPC  H12S23254   1.311   4.527   3.317 -0.1437 -0.7826  0.4865
  174POPC  C21323255   1.125   4.612   3.374 -0.3794  0.4609 -0.3629
  174POPC  H13R23256   1.094   4.594   3.269  3.4801  2.1658 -1.9874
  174POPC  H13S23257   1.088   4.711   3.409  1.0444  1.4484 -1.5274
  174POPC  C21423258   1.086   4.504   3.458 -0.0385 -0.0947 -0.3727
  174POPC  H14R23259   1.111   4.531   3.563 -0.7863 -0.1160 -0.1881
  174POPC  H14S23260   1.134   4.408   3.430 -0.8191 -0.3666 -0.7980
  174POPC  C21523261   0.939   4.498   3.459 -0.0647 -0.5653 -0.1016
  174POPC  H15R23262   0.894   4.470   3.362  2.7595 -0.3998 -1.5742
  174POPC  H15S23263   0.907   4.602   3.480 -0.2372 -0.4224 -1.0559
  174POPC  C21623264   0.884   4.389   3.561  0.3258 -0.6560  0.0116
  174POPC  H16R23265   0.926   4.409   3.662  0.8631  0.5546 -0.4282
  174POPC  H16S23266   0.911   4.288   3.525 -0.3118 -0.7012 -0.3617
  174POPC  C21723267   0.733   4.400   3.577 -0.5884  0.0612  0.2323
  174POPC  H17R23268   0.694   4.307   3.623 -2.4115 -0.0140 -1.3455
  174POPC  H17S23269   0.679   4.401   3.480  2.4167  0.6082 -1.5624
  174POPC  C21823270   0.680   4.525   3.659 -0.3026  0.3263  0.8280
  174POPC  H18R23271   0.701   4.516   3.768  1.1123  0.5324  0.5942
  174POPC  H18S23272   0.570   4.524   3.641 -0.4226  1.1317  1.4461
  174POPC  H18T23273   0.737   4.611   3.618  0.1771  0.2077  1.2342
  174POPC   C3323274   1.651   5.182   2.654  0.1089 -0.2981 -0.4830
  174POPC   H3X23275   1.586   5.272   2.641  0.4228  0.3559  1.9872
  174POPC   H3Y23276   1.731   5.183   2.577 -0.1381  1.7516 -0.7740
  174POPC   C3423277   1.702   5.195   2.804  0.0818 -0.8195 -0.2107
  174POPC   H4X23278   1.611   5.190   2.867  0.8530 -1.4333  0.8806
  174POPC   H4Y23279   1.769   5.281   2.826  3.7193 -3.6158  0.6825
  174POPC   C3523280   1.780   5.066   2.828 -0.4843  0.0591 -0.0760
  174POPC   H5X23281   1.869   5.064   2.761 -0.2532 -2.3148  0.2187
  174POPC   H5Y23282   1.718   4.978   2.800  2.6853 -2.3396 -0.1471
  174POPC   C3623283   1.827   5.050   2.970 -0.5128 -0.5636  0.1843
  174POPC   H6X23284   1.752   5.076   3.048 -1.1987  0.8817 -0.9189
  174POPC   H6Y23285   1.900   5.133   2.987 -2.2224  1.1090 -0.3075
  174POPC   C3723286   1.908   4.926   2.976 -0.3968 -0.1294  0.3652
  174POPC   H7X23287   1.988   4.929   2.898 -0.8806  1.7263 -0.1149
  174POPC   H7Y23288   1.840   4.846   2.939 -0.0629  0.0989 -0.7956
  174POPC   C3823289   1.961   4.888   3.110 -0.1641 -0.1542 -0.3402
  174POPC   H8X23290   2.027   4.968   3.151  1.6331 -0.8886 -1.7090
  174POPC   H8Y23291   2.032   4.803   3.107  0.0210 -0.0565  0.7900
  174POPC   C3923292   1.852   4.863   3.220  0.3735  0.0790  0.6904
  174POPC   H9X23293   1.792   4.780   3.178 -0.2127  0.7645  0.1418
  174POPC   H9Y23294   1.783   4.949   3.235 -0.1609 -0.7375  3.7524
  174POPC  C31023295   1.918   4.810   3.353 -0.0969 -0.5385 -0.4019
  174POPC  H10X23296   1.995   4.881   3.391 -1.6457  1.3659 -0.6970
  174POPC  H10Y23297   1.952   4.706   3.334 -0.6596 -0.9150  0.5482
  174POPC  C31123298   1.822   4.796   3.471  0.0177  0.2497  0.0560
  174POPC  H11X23299   1.757   4.710   3.442 -0.4418  0.3010  0.9229
  174POPC  H11Y23300   1.764   4.890   3.485  0.8002  1.0479 -1.7086
  174POPC  C31223301   1.890   4.747   3.602  0.3948 -0.0284  0.5811
  174POPC  H12X23302   1.933   4.839   3.648  0.9191  0.4879 -0.8774
  174POPC  H12Y23303   1.966   4.673   3.571 -0.3007  0.3852 -2.4727
  174POPC  C31323304   1.794   4.676   3.698  0.2810 -0.2894 -0.1608
  174POPC  H13X23305   1.763   4.572   3.673  2.2583 -1.1075  0.6511
  174POPC  H13Y23306   1.701   4.736   3.710 -0.1646 -1.1000  0.6087
  174POPC  C31423307   1.872   4.664   3.829 -0.2164 -0.6155 -0.8288
  174POPC  H14X23308   1.878   4.770   3.859 -0.6966 -0.4052 -1.4653
  174POPC  H14Y23309   1.975   4.627   3.808 -0.1917 -1.9076  1.2363
  174POPC  C31523310   1.796   4.587   3.940 -0.4454 -0.1430  0.5878
  174POPC  H15X23311   1.801   4.480   3.912  0.4806  0.2919 -1.0782
  174POPC  H15Y23312   1.688   4.612   3.928 -0.0442  1.3535 -0.3111
  174POPC  C31623313   1.846   4.618   4.079  0.1834 -0.1782  0.7160
  174POPC  H16X23314   1.948   4.573   4.077 -0.2761 -1.2086  0.1712
  174POPC  H16Y23315   1.791   4.570   4.163  0.0184  1.2954  1.4823
  174POPC  H16Z23316   1.857   4.728   4.093 -0.4135 -0.1489  0.9774
  175POPC     N23317   3.308   6.062   1.739 -0.0185 -0.2879 -0.0136
  175POPC   C1223318   3.382   6.010   1.857 -0.4245 -0.0626  0.3965
  175POPC  H12A23319   3.474   6.067   1.854 -0.2049 -0.4376 -1.5358
  175POPC  H12B23320   3.414   5.908   1.844  0.5584 -0.0928  2.6396
  175POPC   C1323321   3.379   6.029   1.613 -0.5174  0.3572 -0.7099
  175POPC  H13A23322   3.320   6.018   1.523  1.4868 -0.3343 -1.9900
  175POPC  H13B23323   3.450   6.108   1.596  4.9058 -3.4200  1.5323
  175POPC  H13C23324   3.435   5.937   1.623 -4.1401 -2.3398 -2.7494
  175POPC   C1423325   3.170   6.004   1.754  0.4515  0.0017  0.1320
  175POPC  H14A23326   3.105   6.036   1.674  0.0542 -2.7178 -0.7360
  175POPC  H14B23327   3.162   5.897   1.762  1.0296 -0.0928 -0.4275
  175POPC  H14C23328   3.130   6.048   1.844 -1.5039 -0.5556 -0.4251
  175POPC   C1523329   3.296   6.213   1.739 -0.4420 -0.2407  0.4236
  175POPC  H15A23330   3.249   6.242   1.646 -1.0442 -1.3582  0.3568
  175POPC  H15B23331   3.389   6.266   1.750 -1.0117  0.6269  1.1243
  175POPC  H15C23332   3.234   6.247   1.820 -1.9050  1.7421 -1.4014
  175POPC   C1123333   3.327   6.008   2.000  0.3253 -0.1917  0.3167
  175POPC  H11A23334   3.283   6.109   2.011  1.1499  0.1888  0.1931
  175POPC  H11B23335   3.412   6.007   2.072  0.9225  1.4618 -0.3109
  175POPC     P23336   3.279   5.759   2.027  0.1308  0.0870  0.3538
  175POPC   O1323337   3.364   5.720   1.914 -0.0149  0.7921  0.2579
  175POPC   O1423338   3.163   5.672   2.054  0.2011  0.4019 -0.0900
  175POPC   O1223339   3.223   5.901   2.012 -0.5051 -0.2786  0.0507
  175POPC   O1123340   3.375   5.753   2.151  0.0144 -0.6203  0.0787
  175POPC    C123341   3.334   5.813   2.273  0.8059 -0.4572 -0.6911
  175POPC    HA23342   3.238   5.870   2.270  1.2297  0.2802 -0.3891
  175POPC    HB23343   3.415   5.886   2.292 -0.1854  0.6968 -0.8208
  175POPC    C223344   3.342   5.713   2.394  0.0633 -0.0155  0.6760
  175POPC    HS23345   3.249   5.652   2.403  1.7641 -3.1534 -1.4465
  175POPC   O2123346   3.383   5.779   2.514  0.4372 -0.5846 -0.3728
  175POPC   C2123347   3.289   5.864   2.565 -0.6491 -0.7906  0.5138
  175POPC   O2223348   3.182   5.887   2.508 -0.0744 -0.0792 -0.3342
  175POPC   C2223349   3.341   5.892   2.705  0.6162 -0.0178  0.1240
  175POPC   H2R23350   3.421   5.969   2.702  0.1846  0.6364  2.8664
  175POPC   H2S23351   3.377   5.795   2.746  2.2612  1.2871  1.9416
  175POPC    C323352   3.458   5.611   2.364  0.5401  0.3909 -0.2480
  175POPC    HX23353   3.540   5.680   2.335  1.9550 -0.2110  2.0443
  175POPC    HY23354   3.427   5.558   2.272 -1.2141  1.9113 -0.5895
  175POPC   O3123355   3.481   5.519   2.476  0.6250  0.2271 -0.3166
  175POPC   C3123356   3.601   5.463   2.483 -0.0186 -0.0011 -0.4738
  175POPC   O3223357   3.683   5.468   2.394 -0.6940  0.2636  0.5203
  175POPC   C3223358   3.629   5.401   2.612 -0.3132  1.3627 -0.3184
  175POPC   H2X23359   3.551   5.322   2.616 -0.8875  1.8536 -1.3362
  175POPC   H2Y23360   3.603   5.478   2.688  1.0966  1.2979  0.2654
  175POPC   C2323361   3.236   5.953   2.791  0.4473 -0.4077  0.6045
  175POPC   H3R23362   3.178   6.022   2.726 -3.1181 -1.3326  2.5693
  175POPC   H3S23363   3.266   6.021   2.873  1.0589 -0.5861  0.5382
  175POPC   C2423364   3.133   5.859   2.852  0.2471  0.3737 -0.5583
  175POPC   H4R23365   3.106   5.778   2.782  0.4013 -1.5660  1.5141
  175POPC   H4S23366   3.043   5.920   2.874 -0.3549 -0.0683 -1.7724
  175POPC   C2523367   3.182   5.790   2.977  0.0518 -0.1285 -0.1352
  175POPC   H5R23368   3.270   5.727   2.954 -0.9479 -1.4337 -0.4643
  175POPC   H5S23369   3.106   5.712   2.998  0.2403  0.2995  2.4889
  175POPC   C2623370   3.208   5.871   3.101 -0.6850 -0.6080 -0.1127
  175POPC   H6R23371   3.298   5.933   3.083 -1.0481 -0.3772 -1.2197
  175POPC   H6S23372   3.223   5.799   3.184 -1.9808  1.3151  1.8663
  175POPC   C2723373   3.100   5.975   3.146  0.3323 -0.0103  0.0591
  175POPC   H7R23374   3.000   5.927   3.140 -0.2686  1.3396 -1.9006
  175POPC   H7S23375   3.095   6.058   3.073  1.5329 -0.2626 -0.3356
  175POPC   C2823376   3.125   6.053   3.272  0.9879  0.0541 -0.6981
  175POPC   H8R23377   3.039   6.122   3.279  0.2645 -0.9555  0.7996
  175POPC   H8S23378   3.217   6.114   3.271 -0.1343  1.8581  0.8658
  175POPC   C2923379   3.129   5.958   3.391  0.6808 -0.3319 -0.3835
  175POPC   H9123380   3.225   5.903   3.391  0.3436 -0.9341 -0.4517
  175POPC  C21023381   3.032   5.907   3.477  0.6205  0.4059 -0.1728
  175POPC  H10123382   3.052   5.842   3.563  1.5324  3.4689  2.0787
  175POPC  C21123383   2.893   5.957   3.482  1.4603  0.4009 -1.0596
  175POPC  H11R23384   2.874   6.025   3.396  0.4443  0.1792 -1.0278
  175POPC  H11S23385   2.866   6.015   3.573 -0.0924 -1.5025 -0.2286
  175POPC  C21223386   2.781   5.854   3.471 -0.3606 -0.4953 -0.1471
  175POPC  H12R23387   2.788   5.818   3.366 -0.3794 -1.0489  0.0404
  175POPC  H12S23388   2.688   5.915   3.481 -0.9140 -1.6637  2.4638
  175POPC  C21323389   2.774   5.751   3.582 -0.8931 -0.1399  0.5022
  175POPC  H13R23390   2.757   5.813   3.672  1.5722  1.6718 -0.1692
  175POPC  H13S23391   2.866   5.694   3.604 -1.0373 -0.2953  0.7023
  175POPC  C21423392   2.653   5.656   3.563  0.1883  0.4507  0.2393
  175POPC  H14R23393   2.656   5.595   3.470 -2.7077 -1.2049  1.0967
  175POPC  H14S23394   2.562   5.719   3.569 -0.1567 -0.0887  0.7790
  175POPC  C21523395   2.651   5.541   3.667 -0.2934 -0.2441  0.7346
  175POPC  H15R23396   2.558   5.481   3.676  0.2886 -0.9300  2.6636
  175POPC  H15S23397   2.675   5.598   3.760  0.0633  1.1446 -0.1683
  175POPC  C21623398   2.771   5.444   3.640  0.5334  0.2820 -0.2142
  175POPC  H16R23399   2.865   5.503   3.628  0.8618  0.6315  3.1945
  175POPC  H16S23400   2.746   5.395   3.543  0.1408 -2.3343  1.1259
  175POPC  C21723401   2.799   5.329   3.731  0.5153 -0.1551  0.3504
  175POPC  H17R23402   2.851   5.363   3.823 -2.2883  1.7122  1.3739
  175POPC  H17S23403   2.875   5.266   3.680  0.5733 -0.8055  1.2158
  175POPC  C21823404   2.673   5.250   3.777 -0.7407  0.0538  0.3945
  175POPC  H18R23405   2.700   5.163   3.840 -0.8299 -0.6599 -0.5320
  175POPC  H18S23406   2.617   5.211   3.690  0.3004  2.5042 -1.4961
  175POPC  H18T23407   2.626   5.327   3.842 -0.3268 -0.7622  1.7016
  175POPC   C3323408   3.773   5.348   2.632 -0.2838  0.2775 -0.6040
  175POPC   H3X23409   3.812   5.313   2.534  0.1566  0.3805 -0.4663
  175POPC   H3Y23410   3.756   5.267   2.706 -2.2777  0.2387 -1.0344
  175POPC   C3423411   3.864   5.437   2.704 -0.1672  0.3946 -0.2159
  175POPC   H4X23412   3.806   5.484   2.787 -0.7442  0.6574 -0.7551
  175POPC   H4Y23413   3.902   5.517   2.637  3.7711 -0.7514  0.4106
  175POPC   C3523414   3.993   5.376   2.763 -0.0939 -0.6649 -0.4241
  175POPC   H5X23415   4.048   5.459   2.813 -1.8897  0.5164 -0.3193
  175POPC   H5Y23416   4.062   5.335   2.687  0.8549 -2.0388  1.1197
  175POPC   C3623417   3.961   5.272   2.876  0.1180 -0.0903  0.6010
  175POPC   H6X23418   3.936   5.178   2.823  1.2783  0.2844 -0.6894
  175POPC   H6Y23419   3.876   5.301   2.942 -0.9424 -2.2472  0.2602
  175POPC   C3723420   4.087   5.233   2.953  0.0237 -0.3898  0.6286
  175POPC   H7X23421   4.174   5.243   2.885 -0.4370 -2.5895 -0.3854
  175POPC   H7Y23422   4.081   5.124   2.973 -0.0406 -0.5376 -0.1943
  175POPC   C3823423   4.088   5.317   3.077  0.4826  0.7433 -0.5670
  175POPC   H8X23424   3.991   5.323   3.132  0.0623 -0.2485 -1.1798
  175POPC   H8Y23425   4.109   5.422   3.049  1.3065  0.4898 -0.9399
  175POPC   C3923426   4.201   5.264   3.170 -0.0869 -0.0651  0.5520
  175POPC   H9X23427   4.283   5.264   3.096 -0.1760  0.6005  0.4486
  175POPC   H9Y23428   4.196   5.156   3.194  2.6309 -0.5363 -0.6448
  175POPC  C31023429   4.237   5.361   3.280 -0.1761 -0.1372  0.2075
  175POPC  H10X23430   4.242   5.468   3.251 -3.2786  0.5455  1.7647
  175POPC  H10Y23431   4.339   5.334   3.316 -0.0540  0.7962  0.5836
  175POPC  C31123432   4.148   5.364   3.405 -0.0673  0.1725  0.7189
  175POPC  H11X23433   4.117   5.267   3.448  0.1177 -0.4850 -0.6062
  175POPC  H11Y23434   4.053   5.419   3.384 -1.6747 -1.6054  2.7838
  175POPC  C31223435   4.215   5.441   3.521  0.7588  0.2148 -0.1218
  175POPC  H12X23436   4.252   5.540   3.487  3.4551 -1.1400 -1.4401
  175POPC  H12Y23437   4.302   5.384   3.561  0.0199 -1.6757 -1.0874
  175POPC  C31323438   4.121   5.467   3.643  0.1327  0.1311  0.5398
  175POPC  H13X23439   4.093   5.371   3.692  2.4826 -0.7721  0.2117
  175POPC  H13Y23440   4.023   5.506   3.606  0.8780 -0.0514 -1.8090
  175POPC  C31423441   4.183   5.548   3.758  0.2338 -0.5684  0.0468
  175POPC  H14X23442   4.250   5.624   3.711  0.4100 -0.2766  0.7660
  175POPC  H14Y23443   4.251   5.478   3.812 -1.7768 -2.0484  0.7700
  175POPC  C31523444   4.088   5.614   3.852 -0.7300 -0.0549 -0.3983
  175POPC  H15X23445   4.028   5.534   3.900 -1.0897 -0.2685 -1.1715
  175POPC  H15Y23446   4.013   5.679   3.801 -0.6297 -0.6426 -1.3315
  175POPC  C31623447   4.161   5.685   3.961  0.1285  0.0306  0.3348
  175POPC  H16X23448   4.206   5.777   3.918  0.7217  0.0667  1.0149
  175POPC  H16Y23449   4.236   5.618   4.009 -1.1008 -1.3373  0.4046
  175POPC  H16Z23450   4.090   5.716   4.040  1.1131 -0.5418  1.4907
  176POPC     N23451   1.168   0.733   1.725  0.1867 -0.3809  0.1017
  176POPC   C1223452   1.015   0.735   1.696 -0.3623 -0.9613 -0.1054
  176POPC  H12A23453   0.990   0.634   1.666  0.0227 -0.3425 -2.7687
  176POPC  H12B23454   1.011   0.802   1.612  3.4726  0.6319  0.7921
  176POPC   C1323455   1.249   0.700   1.607 -0.4489  0.6690 -0.2097
  176POPC  H13A23456   1.220   0.612   1.552  1.3975  0.1924 -0.4795
  176POPC  H13B23457   1.236   0.776   1.531 -2.6956 -1.1064 -1.7368
  176POPC  H13C23458   1.354   0.692   1.631 -0.2612  2.0277 -0.4992
  176POPC   C1423459   1.204   0.873   1.762  0.1314 -0.2075 -0.5226
  176POPC  H14A23460   1.188   0.883   1.868  0.9644 -0.4430 -0.3636
  176POPC  H14B23461   1.311   0.874   1.745  0.4434 -1.2148  1.2002
  176POPC  H14C23462   1.145   0.946   1.709  0.9501 -0.2486 -1.5282
  176POPC   C1523463   1.205   0.640   1.836  0.4896  0.1295  0.2899
  176POPC  H15A23464   1.158   0.671   1.928 -0.8944  0.9918 -0.6602
  176POPC  H15B23465   1.310   0.630   1.858  0.0200 -2.6978  1.7203
  176POPC  H15C23466   1.174   0.538   1.819  0.9990 -0.1211  0.8155
  176POPC   C1123467   0.924   0.779   1.810  0.7248 -0.5942 -0.9010
  176POPC  H11A23468   0.936   0.888   1.824 -0.5321 -0.6826  1.2750
  176POPC  H11B23469   0.950   0.727   1.905 -0.0458  1.8131  0.7091
  176POPC     P23470   0.709   0.866   1.687 -0.3810  0.0872  0.0091
  176POPC   O1323471   0.627   0.788   1.584  0.1744 -0.3076  0.0540
  176POPC   O1423472   0.794   0.964   1.632 -0.2510 -0.0638  0.0292
  176POPC   O1223473   0.790   0.753   1.768  0.6138 -0.4321 -0.1649
  176POPC   O1123474   0.613   0.943   1.788  0.3725  0.1682  0.6209
  176POPC    C123475   0.660   1.000   1.915 -0.2733  0.1182  0.1583
  176POPC    HA23476   0.705   0.914   1.970 -0.6489 -0.3427 -0.2431
  176POPC    HB23477   0.584   1.043   1.984  0.3866 -0.7141  1.4560
  176POPC    C223478   0.751   1.122   1.890 -1.1492  0.0023  0.0787
  176POPC    HS23479   0.840   1.085   1.836 -1.8338  0.1093 -1.1592
  176POPC   O2123480   0.787   1.186   2.011  0.3632  0.4424  0.4616
  176POPC   C2123481   0.868   1.128   2.094 -0.2859  0.2310 -0.0554
  176POPC   O2223482   0.934   1.031   2.070 -0.1984  0.1421  0.1079
  176POPC   C2223483   0.873   1.217   2.221  0.6126 -0.3963 -0.5971
  176POPC   H2R23484   0.818   1.314   2.216  2.1004  0.5899  1.0595
  176POPC   H2S23485   0.981   1.232   2.240  0.4438  0.3633 -0.2085
  176POPC    C323486   0.682   1.231   1.802  0.6006 -0.3453  0.4973
  176POPC    HX23487   0.652   1.195   1.701  0.4421 -2.7993  1.3482
  176POPC    HY23488   0.751   1.318   1.798  0.6109 -0.3033  1.3057
  176POPC   O3123489   0.566   1.270   1.879 -0.0217 -0.1527 -0.1845
  176POPC   C3123490   0.570   1.380   1.949  0.4257  0.2225 -0.7567
  176POPC   O3223491   0.660   1.460   1.950 -0.2179  0.0091 -0.2487
  176POPC   C3223492   0.436   1.416   2.008 -0.0773 -0.6064  0.0360
  176POPC   H2X23493   0.347   1.420   1.942 -0.2403  0.4607  0.2974
  176POPC   H2Y23494   0.441   1.524   2.036  2.3603 -0.0380 -2.1534
  176POPC   C2323495   0.823   1.145   2.355 -0.4236 -0.1717 -0.0261
  176POPC   H3R23496   0.886   1.058   2.384 -0.6347  0.3395  2.1169
  176POPC   H3S23497   0.724   1.105   2.327 -1.2739  3.1922 -2.4965
  176POPC   C2423498   0.812   1.251   2.469 -0.4725 -0.2049  0.0694
  176POPC   H4R23499   0.725   1.301   2.422 -1.3848 -2.4671 -0.8173
  176POPC   H4S23500   0.904   1.312   2.476 -0.9907  1.2544 -3.7141
  176POPC   C2523501   0.779   1.195   2.608 -0.1125 -0.8178 -0.5605
  176POPC   H5R23502   0.708   1.110   2.600 -0.6664 -0.5751  1.2921
  176POPC   H5S23503   0.725   1.280   2.654 -0.2616  0.1478 -2.4037
  176POPC   C2623504   0.894   1.159   2.708  0.1851 -0.5586  0.1477
  176POPC   H6R23505   0.942   1.256   2.734 -1.2692  1.1949 -3.0808
  176POPC   H6S23506   0.969   1.097   2.654 -1.9815 -1.3850 -2.0574
  176POPC   C2723507   0.859   1.105   2.841  0.6656 -0.2683 -0.4484
  176POPC   H7R23508   0.811   1.007   2.821 -0.5585  0.0040  0.9590
  176POPC   H7S23509   0.772   1.162   2.882  0.3957 -0.2272 -1.0709
  176POPC   C2823510   0.976   1.081   2.939 -0.0315  0.0298 -0.1047
  176POPC   H8R23511   0.934   1.028   3.027  1.3196 -0.5862  0.2019
  176POPC   H8S23512   1.004   1.177   2.986 -1.0076 -0.6675  1.9971
  176POPC   C2923513   1.096   1.001   2.904 -0.3917  0.0011 -0.6271
  176POPC   H9123514   1.083   0.955   2.805  0.5367  2.9123 -2.2248
  176POPC  C21023515   1.218   0.997   2.973  0.1312 -0.0295 -0.7599
  176POPC  H10123516   1.308   0.950   2.931  0.3698 -0.6198  0.3541
  176POPC  C21123517   1.241   1.061   3.109 -0.3358 -0.3094 -0.9213
  176POPC  H11R23518   1.141   1.101   3.138 -0.8156 -1.9966 -0.1170
  176POPC  H11S23519   1.309   1.149   3.100  0.5873 -0.6452  1.9065
  176POPC  C21223520   1.290   0.959   3.218  0.4686  0.3049 -0.3935
  176POPC  H12R23521   1.388   0.924   3.180  0.0212  1.0469 -2.3217
  176POPC  H12S23522   1.211   0.884   3.240  1.6104 -0.3896  1.7165
  176POPC  C21323523   1.323   1.014   3.354  0.0825 -0.4977 -0.1063
  176POPC  H13R23524   1.315   0.929   3.425  0.3529  0.3941  1.0178
  176POPC  H13S23525   1.249   1.091   3.384  1.5432  1.3921 -1.1451
  176POPC  C21423526   1.462   1.078   3.371 -0.0620 -0.2035 -0.1168
  176POPC  H14R23527   1.468   1.169   3.308  0.7914 -0.4610 -0.4219
  176POPC  H14S23528   1.545   1.008   3.345  1.5247  1.7578 -0.5754
  176POPC  C21523529   1.506   1.124   3.509 -0.5114  0.2897 -0.4827
  176POPC  H15R23530   1.493   1.036   3.576 -3.6624  0.4671 -0.7288
  176POPC  H15S23531   1.433   1.200   3.543  0.4347  0.5478  1.1262
  176POPC  C21623532   1.643   1.177   3.514 -0.1789  0.2542 -0.4069
  176POPC  H16R23533   1.668   1.275   3.467 -2.4174  1.0772 -0.0374
  176POPC  H16S23534   1.709   1.106   3.462  0.9543  1.4367 -0.6357
  176POPC  C21723535   1.698   1.192   3.665  0.2043 -0.0767 -0.5481
  176POPC  H17R23536   1.618   1.243   3.724 -0.4312 -0.8990 -0.6832
  176POPC  H17S23537   1.783   1.263   3.673  1.4448 -1.6373  0.6321
  176POPC  C21823538   1.730   1.055   3.728  0.2266  0.3944 -0.3002
  176POPC  H18R23539   1.638   0.993   3.728  1.1190 -0.9843 -1.1079
  176POPC  H18S23540   1.773   1.076   3.828  0.4462  0.9443 -0.5034
  176POPC  H18T23541   1.817   1.008   3.678  0.2606 -0.5079  0.5973
  176POPC   C3323542   0.384   1.323   2.122 -0.2177  0.7167  0.2425
  176POPC   H3X23543   0.414   1.218   2.102  0.1169  1.1920 -1.9865
  176POPC   H3Y23544   0.274   1.335   2.122 -0.3456 -0.2441 -1.5228
  176POPC   C3423545   0.436   1.372   2.260 -0.6188 -0.3358 -0.1798
  176POPC   H4X23546   0.440   1.482   2.268 -0.2743 -0.1064 -2.6933
  176POPC   H4Y23547   0.536   1.327   2.277 -0.9957 -0.8649  0.7603
  176POPC   C3523548   0.344   1.311   2.374 -0.5841  0.0812 -0.1551
  176POPC   H5X23549   0.316   1.207   2.346 -0.7480  0.3432 -1.0214
  176POPC   H5Y23550   0.246   1.363   2.373 -1.1582 -0.8954  1.7548
  176POPC   C3623551   0.407   1.298   2.509  0.0583 -0.1842  0.2153
  176POPC   H6X23552   0.447   1.399   2.533 -0.5426  0.2343 -0.5065
  176POPC   H6Y23553   0.496   1.232   2.505 -0.0485 -0.4327  1.4023
  176POPC   C3723554   0.320   1.232   2.613 -0.1549 -1.1818 -0.1674
  176POPC   H7X23555   0.255   1.154   2.568 -1.6655 -0.8019  1.2603
  176POPC   H7Y23556   0.256   1.312   2.657 -0.3370 -0.8475 -1.0079
  176POPC   C3823557   0.395   1.153   2.726  0.6314 -0.6189 -0.8340
  176POPC   H8X23558   0.464   1.230   2.766  2.1937 -1.3563 -1.9981
  176POPC   H8Y23559   0.457   1.066   2.695 -0.1881 -2.1949  1.6712
  176POPC   C3923560   0.296   1.102   2.831  0.9014  0.1240 -0.0448
  176POPC   H9X23561   0.339   1.029   2.903 -0.4821 -0.6133  0.0664
  176POPC   H9Y23562   0.212   1.050   2.780  1.4847  1.6458 -2.7391
  176POPC  C31023563   0.224   1.211   2.918 -0.4977 -0.1413  0.2150
  176POPC  H10X23564   0.154   1.269   2.854 -0.4920  1.6429  1.7290
  176POPC  H10Y23565   0.299   1.285   2.953 -0.5045 -0.2162  0.3896
  176POPC  C31123566   0.164   1.149   3.047  0.0717 -0.5519 -0.1043
  176POPC  H11X23567   0.124   1.232   3.110 -0.1282 -0.4929 -0.3097
  176POPC  H11Y23568   0.255   1.108   3.097  0.6396  2.3718  1.5154
  176POPC  C31223569   0.066   1.034   3.018  0.0561 -0.0096 -0.7846
  176POPC  H12X23570   0.023   1.011   3.118  1.3370 -0.2063 -0.2569
  176POPC  H12Y23571   0.117   0.943   2.979 -1.3886 -1.2824  0.1794
  176POPC  C31323572  -0.040   1.073   2.910  0.6674 -0.4341 -0.5376
  176POPC  H13X23573   0.002   1.093   2.809 -0.4665  0.3770 -0.8822
  176POPC  H13Y23574  -0.081   1.172   2.941  2.4291  1.0619 -2.6527
  176POPC  C31423575  -0.145   0.965   2.884 -0.0367 -0.1459 -0.3609
  176POPC  H14X23576  -0.172   0.928   2.986  1.3001 -0.0977  0.0188
  176POPC  H14Y23577  -0.098   0.891   2.816  1.2643 -0.9084  1.2755
  176POPC  C31523578  -0.282   1.011   2.835  0.6071 -0.4124  1.2778
  176POPC  H15X23579  -0.326   1.100   2.885  0.9257  0.4896  0.0157
  176POPC  H15Y23580  -0.359   0.932   2.846 -1.3184  1.0517 -0.6460
  176POPC  C31623581  -0.278   1.056   2.685 -0.9676  0.2035 -0.0722
  176POPC  H16X23582  -0.260   0.972   2.614  0.9542  0.4417  0.0935
  176POPC  H16Y23583  -0.192   1.126   2.680  1.4431 -2.5453  0.0220
  176POPC  H16Z23584  -0.371   1.112   2.662 -0.8914  0.5620  0.4846
  177POPC     N23585   6.171   6.651   2.348 -0.2955 -0.5745  0.0830
  177POPC   C1223586   6.253   6.777   2.320  0.3833  0.7025 -0.4038
  177POPC  H12A23587   6.357   6.748   2.320  0.4063  0.7462  0.4018
  177POPC  H12B23588   6.243   6.848   2.401  0.1673  1.1628 -0.8327
  177POPC   C1323589   6.181   6.617   2.495 -0.6107 -0.3024 -0.2761
  177POPC  H13A23590   6.149   6.700   2.556  0.1244 -0.4099  0.2698
  177POPC  H13B23591   6.108   6.538   2.509 -3.1021  1.8147 -0.5208
  177POPC  H13C23592   6.282   6.588   2.519 -0.3558 -0.2939 -1.3095
  177POPC   C1423593   6.027   6.677   2.320  0.1397  0.4847 -0.0895
  177POPC  H14A23594   5.980   6.760   2.370 -3.0284 -0.4601 -1.2396
  177POPC  H14B23595   6.011   6.695   2.215  0.4049 -0.0574 -0.2274
  177POPC  H14C23596   5.961   6.596   2.348  0.2463  0.1901 -0.6817
  177POPC   C1523597   6.216   6.531   2.272 -1.1150  0.0040 -0.2552
  177POPC  H15A23598   6.156   6.444   2.291 -1.0820 -0.2491 -1.2318
  177POPC  H15B23599   6.319   6.509   2.295 -1.2798 -1.0500 -0.4755
  177POPC  H15C23600   6.208   6.538   2.164  1.2738 -1.3364 -0.6004
  177POPC   C1123601   6.236   6.848   2.186  0.1694  0.7215  0.4562
  177POPC  H11A23602   6.248   6.768   2.109 -1.4992  0.1733  0.7362
  177POPC  H11B23603   6.324   6.914   2.171  0.5057  0.0025 -0.9748
  177POPC     P23604   6.095   7.057   2.214  0.0439 -0.3475 -0.0302
  177POPC   O1323605   5.952   7.086   2.218 -0.0469  0.4614 -0.5427
  177POPC   O1423606   6.179   7.149   2.134  1.0686  0.1658  0.5549
  177POPC   O1223607   6.116   6.909   2.161  0.0360  0.9893 -0.5724
  177POPC   O1123608   6.146   7.055   2.363  0.5105  0.1396  0.2790
  177POPC    C123609   6.054   7.043   2.474 -0.6906 -0.2675 -0.2485
  177POPC    HA23610   6.085   6.968   2.551 -1.2593 -0.9814 -0.6973
  177POPC    HB23611   5.951   7.009   2.451 -1.4161  1.6202  0.0518
  177POPC    C223612   6.034   7.176   2.551  0.2624 -0.1239 -0.5697
  177POPC    HS23613   6.004   7.248   2.472  3.0042  0.1319 -1.4858
  177POPC   O2123614   6.166   7.218   2.595  0.1005  0.2063  0.2764
  177POPC   C2123615   6.205   7.349   2.582  0.3852  0.3928 -0.2834
  177POPC   O2223616   6.143   7.438   2.540  0.1816 -0.7487  0.4325
  177POPC   C2223617   6.352   7.360   2.621  0.1662  0.6504 -0.0696
  177POPC   H2R23618   6.376   7.469   2.624 -1.1082  1.0935 -2.5203
  177POPC   H2S23619   6.391   7.313   2.528 -1.3030  2.3752 -1.6647
  177POPC    C323620   5.933   7.179   2.665  0.6466 -1.0030  0.3434
  177POPC    HX23621   5.834   7.183   2.615  1.4537  0.2393 -1.2266
  177POPC    HY23622   5.941   7.275   2.719  0.3260 -0.6819 -0.1722
  177POPC   O3123623   5.932   7.061   2.751  0.2108  0.1136 -0.2630
  177POPC   C3123624   6.006   7.064   2.866  0.4646 -0.6266 -0.2689
  177POPC   O3223625   6.063   7.160   2.911  0.3444  0.2052 -0.0980
  177POPC   C3223626   6.006   6.928   2.927  0.4162  0.6886 -0.4755
  177POPC   H2X23627   6.064   6.869   2.853  0.3934 -0.0431  0.0795
  177POPC   H2Y23628   5.903   6.887   2.923  0.5604  0.2614  0.0148
  177POPC   C2323629   6.394   7.276   2.744  0.1419 -0.4525 -0.0432
  177POPC   H3R23630   6.505   7.270   2.750  0.3331  2.4608  0.6665
  177POPC   H3S23631   6.344   7.177   2.735  0.5439 -0.7221  0.6205
  177POPC   C2423632   6.358   7.321   2.883 -0.3560  0.2924 -0.5967
  177POPC   H4R23633   6.248   7.313   2.894 -0.5289 -0.2634 -2.4969
  177POPC   H4S23634   6.377   7.429   2.902  1.4394  0.2173 -1.7245
  177POPC   C2523635   6.414   7.225   2.999  0.1653 -0.0100 -0.1488
  177POPC   H5R23636   6.518   7.262   3.016 -0.5857  2.3378 -0.4259
  177POPC   H5S23637   6.426   7.124   2.955  1.5281  1.2780 -2.9986
  177POPC   C2623638   6.334   7.233   3.130 -0.3786 -0.4612 -0.2351
  177POPC   H6R23639   6.235   7.185   3.116 -0.4029 -0.2576 -0.7791
  177POPC   H6S23640   6.340   7.337   3.169  3.6420 -1.1046  1.3265
  177POPC   C2723641   6.395   7.168   3.263  0.4119 -0.0204 -0.0945
  177POPC   H7R23642   6.506   7.177   3.253  0.3005  1.7906 -0.0121
  177POPC   H7S23643   6.378   7.058   3.255  0.9774 -0.0371 -1.3135
  177POPC   C2823644   6.347   7.210   3.406 -0.4176  0.0414  0.0671
  177POPC   H8R23645   6.390   7.134   3.475  0.2998 -0.3361 -0.7814
  177POPC   H8S23646   6.239   7.183   3.412 -1.1948  2.0484 -2.7789
  177POPC   C2923647   6.367   7.352   3.444 -0.0745  0.5828  0.7253
  177POPC   H9123648   6.347   7.422   3.361 -0.4158 -0.9364 -0.5294
  177POPC  C21023649   6.386   7.394   3.569 -0.1836 -0.2839  0.8086
  177POPC  H10123650   6.389   7.502   3.587 -2.3066 -0.1033  0.4084
  177POPC  C21123651   6.413   7.305   3.687 -1.4087  0.6218 -0.8279
  177POPC  H11R23652   6.409   7.196   3.663 -0.3439  0.3973 -0.0714
  177POPC  H11S23653   6.338   7.326   3.766 -3.1392 -1.7545 -1.7161
  177POPC  C21223654   6.555   7.325   3.744  0.0791  0.0471  0.0102
  177POPC  H12R23655   6.563   7.430   3.780  1.0829  0.3439 -1.0041
  177POPC  H12S23656   6.633   7.299   3.668  0.8891 -0.9144  1.1294
  177POPC  C21323657   6.573   7.223   3.862 -0.0197  0.1742  0.2944
  177POPC  H13R23658   6.678   7.189   3.877  0.2150 -0.3283 -2.1309
  177POPC  H13S23659   6.510   7.133   3.844 -0.6484  0.5221  0.6842
  177POPC  C21423660   6.529   7.281   3.993  0.0092  0.0766  0.0820
  177POPC  H14R23661   6.427   7.321   3.977 -0.1106 -0.6655 -1.1207
  177POPC  H14S23662   6.597   7.358   4.037  1.2032  0.8979 -2.9638
  177POPC  C21523663   6.515   7.175   4.106  0.4646  0.4557  0.1202
  177POPC  H15R23664   6.497   7.228   4.202  0.3799  4.0531 -1.7409
  177POPC  H15S23665   6.614   7.125   4.114 -0.1996 -0.7316  1.4788
  177POPC  C21623666   6.413   7.066   4.085 -0.3996  0.1717  0.2352
  177POPC  H16R23667   6.425   7.013   3.988 -1.1692 -0.0545  0.2532
  177POPC  H16S23668   6.317   7.122   4.077  0.3295  1.3514 -0.7717
  177POPC  C21723669   6.396   6.979   4.210  0.3704 -0.0742  0.0276
  177POPC  H17R23670   6.392   7.046   4.299  0.2911  1.6387 -1.1987
  177POPC  H17S23671   6.482   6.909   4.221  0.0081 -0.1814  2.5730
  177POPC  C21823672   6.272   6.891   4.212  0.1159 -0.0149  0.0001
  177POPC  H18R23673   6.251   6.858   4.316  0.1499  1.8671  0.6465
  177POPC  H18S23674   6.276   6.808   4.138 -1.1362 -1.0545  1.0440
  177POPC  H18T23675   6.183   6.955   4.192  2.1937  3.8482  1.9909
  177POPC   C3323676   6.071   6.907   3.068 -0.4513  1.1335  0.1365
  177POPC   H3X23677   6.015   6.963   3.146  0.1491  1.5206  0.2951
  177POPC   H3Y23678   6.171   6.953   3.059 -0.0299  0.1831 -0.1139
  177POPC   C3423679   6.087   6.763   3.117  0.0801  0.7270  0.1517
  177POPC   H4X23680   6.105   6.776   3.226  1.9303 -0.6407  0.0472
  177POPC   H4Y23681   6.176   6.714   3.072 -1.0908 -1.7818  0.4289
  177POPC   C3523682   5.967   6.668   3.096 -0.1218 -0.1650 -0.4769
  177POPC   H5X23683   5.936   6.670   2.989 -2.7367 -0.0156  0.2125
  177POPC   H5Y23684   5.874   6.707   3.142 -1.5958 -1.0676 -2.5093
  177POPC   C3623685   5.991   6.530   3.151 -0.3786  0.6523  0.3861
  177POPC   H6X23686   6.004   6.534   3.262 -1.5560 -1.7051  0.6647
  177POPC   H6Y23687   6.065   6.469   3.096 -2.5583  0.8772 -3.1125
  177POPC   C3723688   5.869   6.439   3.126 -0.5157 -0.6063  0.2759
  177POPC   H7X23689   5.774   6.486   3.162 -0.8822 -1.5384  0.5636
  177POPC   H7Y23690   5.882   6.357   3.201 -2.2659  0.7220  2.1472
  177POPC   C3823691   5.837   6.389   2.979  0.0045 -0.4443  0.1449
  177POPC   H8X23692   5.926   6.337   2.939 -0.9167 -1.3317 -0.8163
  177POPC   H8Y23693   5.824   6.475   2.910 -2.5798 -0.3186  0.6923
  177POPC   C3923694   5.717   6.288   2.964  0.4661  0.1879 -0.3992
  177POPC   H9X23695   5.706   6.272   2.854 -4.1529 -1.6495  0.1185
  177POPC   H9Y23696   5.636   6.357   2.995  1.3617  0.9050  0.4032
  177POPC  C31023697   5.721   6.151   3.038 -0.5672 -0.2659 -0.3353
  177POPC  H10X23698   5.762   6.157   3.141 -0.5222 -1.9334 -0.2208
  177POPC  H10Y23699   5.792   6.086   2.982 -0.5406  0.0032 -0.6135
  177POPC  C31123700   5.587   6.075   3.044 -0.0736  0.2216  0.5337
  177POPC  H11X23701   5.555   6.042   2.943  0.5630  0.8190  0.1255
  177POPC  H11Y23702   5.503   6.146   3.066 -2.1482 -1.7337 -0.6808
  177POPC  C31223703   5.585   5.951   3.142 -0.2128 -0.6469  0.8176
  177POPC  H12X23704   5.611   5.996   3.241 -0.9311 -0.0943  0.7602
  177POPC  H12Y23705   5.658   5.871   3.116 -0.6614 -0.2936 -1.7641
  177POPC  C31323706   5.451   5.876   3.156  0.1192  0.0708  0.1725
  177POPC  H13X23707   5.425   5.828   3.060 -2.8172  0.6065  0.6005
  177POPC  H13Y23708   5.376   5.958   3.151 -0.0935 -0.1960 -3.2272
  177POPC  C31423709   5.437   5.783   3.268  0.0121  0.0823 -1.1151
  177POPC  H14X23710   5.526   5.718   3.279 -0.7059 -0.5951  1.5081
  177POPC  H14Y23711   5.346   5.724   3.245  1.4349 -1.9846 -1.7239
  177POPC  C31523712   5.418   5.848   3.406  1.3503  0.7928 -0.1344
  177POPC  H15X23713   5.326   5.909   3.400 -0.7758 -2.3062 -2.1091
  177POPC  H15Y23714   5.508   5.909   3.428  1.8027  0.0465  0.1551
  177POPC  C31623715   5.403   5.749   3.523  0.4314 -0.1382 -0.4084
  177POPC  H16X23716   5.324   5.671   3.516  1.5944 -1.2129 -2.2950
  177POPC  H16Y23717   5.385   5.805   3.617  2.4005 -2.2169  1.3465
  177POPC  H16Z23718   5.503   5.706   3.543  0.6062  0.9940  1.4238
  178POPC     N23719   0.365   2.677   1.678  0.0129  0.0447 -0.2289
  178POPC   C1223720   0.436   2.548   1.719 -0.1915  0.9732  0.1413
  178POPC  H12A23721   0.543   2.555   1.730 -0.0728 -1.9092  1.6911
  178POPC  H12B23722   0.429   2.472   1.643 -1.4061 -1.0548  2.1683
  178POPC   C1323723   0.227   2.650   1.620 -0.1281  0.1301  0.8021
  178POPC  H13A23724   0.162   2.606   1.694 -1.2501  0.9039  0.3042
  178POPC  H13B23725   0.198   2.746   1.580  1.4674 -0.0370 -0.8987
  178POPC  H13C23726   0.239   2.585   1.534 -0.8528  0.5128  0.4094
  178POPC   C1423727   0.341   2.771   1.789  0.1561  0.1105  0.6276
  178POPC  H14A23728   0.275   2.732   1.865 -2.0569  0.7177 -0.8976
  178POPC  H14B23729   0.434   2.799   1.837  0.6662 -1.1624  0.4173
  178POPC  H14C23730   0.289   2.853   1.742 -3.0356 -1.8825  0.4436
  178POPC   C1523731   0.445   2.755   1.571  0.1240  0.0849 -0.4007
  178POPC  H15A23732   0.545   2.780   1.604  0.7268 -0.6508 -1.5887
  178POPC  H15B23733   0.404   2.855   1.566 -1.1877 -0.3618  0.9820
  178POPC  H15C23734   0.458   2.698   1.480  0.4742 -0.5809  0.0620
  178POPC   C1123735   0.388   2.481   1.843 -0.0321  0.0960  0.5288
  178POPC  H11A23736   0.400   2.547   1.932  1.4619 -1.1457  1.2986
  178POPC  H11B23737   0.462   2.400   1.862 -1.0590 -1.3207 -1.2534
  178POPC     P23738   0.238   2.283   1.779  0.1895  0.0960 -0.1569
  178POPC   O1323739   0.308   2.257   1.651  0.1211  0.0160 -0.7228
  178POPC   O1423740   0.090   2.254   1.773  0.3638 -0.3276 -0.1589
  178POPC   O1223741   0.251   2.433   1.824  0.5088  0.1072 -0.0216
  178POPC   O1123742   0.313   2.203   1.890 -0.5339  0.8535 -0.2199
  178POPC    C123743   0.322   2.219   2.034  0.5130  0.1574 -0.4348
  178POPC    HA23744   0.246   2.290   2.072  0.1615  0.3315 -1.4372
  178POPC    HB23745   0.414   2.274   2.066  0.9128 -1.3517  1.1758
  178POPC    C223746   0.306   2.083   2.114 -0.3736  0.3545 -0.1766
  178POPC    HS23747   0.340   2.106   2.217 -1.0868  1.7183 -0.2263
  178POPC   O2123748   0.391   1.977   2.062 -0.0582  0.1692  0.5401
  178POPC   C2123749   0.516   1.990   2.072 -0.8190 -0.9692  0.2558
  178POPC   O2223750   0.581   2.091   2.107  0.2141 -0.5114 -0.1522
  178POPC   C2223751   0.580   1.855   2.036  0.8346  0.3903  0.4067
  178POPC   H2R23752   0.645   1.866   1.947  0.0392 -1.2198 -0.4318
  178POPC   H2S23753   0.497   1.785   2.013 -0.7236  2.9112 -2.2781
  178POPC    C323754   0.157   2.029   2.122 -0.2726  0.4674 -0.4142
  178POPC    HX23755   0.144   1.999   2.016 -0.6055 -2.5334  0.3873
  178POPC    HY23756   0.089   2.107   2.163  1.4416  1.3226  0.9638
  178POPC   O3123757   0.157   1.908   2.210 -0.2369  0.1554  0.6207
  178POPC   C3123758   0.181   1.939   2.344  0.7353  0.2335 -0.7802
  178POPC   O3223759   0.186   2.049   2.389  0.6186  0.0729  0.6495
  178POPC   C3223760   0.208   1.812   2.418  0.1391 -0.4546 -1.0904
  178POPC   H2X23761   0.318   1.799   2.412  0.3249 -0.0893  0.7760
  178POPC   H2Y23762   0.142   1.736   2.370 -2.4007 -0.0518  1.5089
  178POPC   C2323763   0.674   1.816   2.149  0.3357 -0.2781  0.1412
  178POPC   H3R23764   0.745   1.900   2.161  1.0403 -0.7407 -0.6308
  178POPC   H3S23765   0.728   1.720   2.132 -0.6035 -0.6526 -0.8947
  178POPC   C2423766   0.593   1.788   2.277  0.3729  0.5791 -0.1413
  178POPC   H4R23767   0.510   1.720   2.251 -1.8426  2.9809  0.2516
  178POPC   H4S23768   0.555   1.884   2.317  2.1461  0.8835  0.9588
  178POPC   C2523769   0.663   1.718   2.396  0.1590  0.8621 -0.8884
  178POPC   H5R23770   0.738   1.782   2.448 -0.6180 -0.2897  1.8241
  178POPC   H5S23771   0.726   1.635   2.357  2.1687  2.2092 -0.6550
  178POPC   C2623772   0.576   1.664   2.511  0.2993 -0.5121  0.2789
  178POPC   H6R23773   0.500   1.600   2.461 -0.5260  1.7925 -1.6308
  178POPC   H6S23774   0.513   1.744   2.554 -1.2146 -0.4840 -1.8231
  178POPC   C2723775   0.660   1.584   2.616 -0.1096 -0.3184  0.2364
  178POPC   H7R23776   0.765   1.616   2.634 -0.0901 -0.3190  0.1295
  178POPC   H7S23777   0.672   1.485   2.567  0.7870  0.5101 -1.3016
  178POPC   C2823778   0.604   1.571   2.760  0.7140  0.3391 -0.3251
  178POPC   H8R23779   0.507   1.517   2.759  0.7260  0.2265  1.4892
  178POPC   H8S23780   0.588   1.678   2.788 -0.7018  0.1835 -0.4904
  178POPC   C2923781   0.694   1.488   2.851  0.2401 -0.3850 -0.5655
  178POPC   H9123782   0.782   1.452   2.795 -0.9002 -0.6878 -2.2475
  178POPC  C21023783   0.681   1.456   2.980 -0.0603  0.2683 -0.4578
  178POPC  H10123784   0.747   1.378   3.021  1.4265  1.2672 -0.8765
  178POPC  C21123785   0.561   1.494   3.060  0.7204  0.1067  0.2709
  178POPC  H11R23786   0.531   1.404   3.118 -0.1634 -0.5661 -1.1501
  178POPC  H11S23787   0.467   1.515   3.003  1.2031  0.7105 -0.3242
  178POPC  C21223788   0.612   1.595   3.164 -0.2173  0.3479 -0.2445
  178POPC  H12R23789   0.527   1.636   3.223 -0.5634  0.5880 -0.9059
  178POPC  H12S23790   0.646   1.690   3.118 -2.9716  0.9734 -1.1274
  178POPC  C21323791   0.716   1.551   3.272  0.6876  0.1087 -0.2582
  178POPC  H13R23792   0.815   1.518   3.233  1.2197  0.8754  0.4090
  178POPC  H13S23793   0.666   1.471   3.332  1.5887  1.4755  2.4985
  178POPC  C21423794   0.750   1.660   3.375  1.0143  0.8101  0.5224
  178POPC  H14R23795   0.655   1.695   3.421  0.5541  0.2709 -0.0004
  178POPC  H14S23796   0.809   1.743   3.331  2.2693 -0.4476 -0.2643
  178POPC  C21523797   0.827   1.611   3.501  0.3889 -0.6922  0.4885
  178POPC  H15R23798   0.922   1.581   3.451  0.3047  0.6586 -0.5653
  178POPC  H15S23799   0.771   1.526   3.545 -0.9195 -0.1254 -0.0271
  178POPC  C21623800   0.878   1.714   3.600 -0.4918  0.1477 -0.0408
  178POPC  H16R23801   0.794   1.770   3.647  0.1653  1.0738  0.0598
  178POPC  H16S23802   0.946   1.782   3.544 -0.6812 -0.0827 -0.5529
  178POPC  C21723803   0.969   1.654   3.712 -0.2288 -0.1150  0.5821
  178POPC  H17R23804   1.008   1.739   3.771 -2.5908  1.1609  0.4187
  178POPC  H17S23805   1.055   1.596   3.672 -0.8508 -2.0996  1.9118
  178POPC  C21823806   0.883   1.565   3.806 -0.3232  0.0933 -0.1142
  178POPC  H18R23807   0.825   1.486   3.754 -1.0205 -1.4422  2.7738
  178POPC  H18S23808   0.810   1.640   3.844  1.4527  1.2076  1.2464
  178POPC  H18T23809   0.924   1.519   3.898 -3.6246 -0.3109  1.2713
  178POPC   C3323810   0.175   1.840   2.569  0.2414 -0.2509 -0.1038
  178POPC   H3X23811   0.072   1.879   2.581  0.4465 -0.1714  1.7235
  178POPC   H3Y23812   0.245   1.911   2.618  2.8080 -3.1586  0.8358
  178POPC   C3423813   0.191   1.713   2.660  0.2372  0.2115  0.4802
  178POPC   H4X23814   0.296   1.678   2.655 -0.3520 -1.6185  0.1839
  178POPC   H4Y23815   0.128   1.629   2.623  0.4301  0.1875  0.2047
  178POPC   C3523816   0.162   1.748   2.804  0.0206 -0.1469 -0.1864
  178POPC   H5X23817   0.057   1.778   2.825  0.2960 -0.6228  2.1318
  178POPC   H5Y23818   0.214   1.839   2.841 -0.0359  0.1351 -0.7933
  178POPC   C3623819   0.172   1.624   2.893  0.4870 -0.3167  0.6066
  178POPC   H6X23820   0.275   1.588   2.912  0.8512  0.3908  0.0246
  178POPC   H6Y23821   0.117   1.537   2.851  0.7334 -0.2288  0.0930
  178POPC   C3723822   0.101   1.648   3.031 -0.2772  0.0339 -0.8282
  178POPC   H7X23823  -0.008   1.663   3.016  0.0114  0.8265 -2.2695
  178POPC   H7Y23824   0.157   1.734   3.073  1.3737 -0.7262 -1.3639
  178POPC   C3823825   0.111   1.536   3.127  0.3307  0.0611 -0.2480
  178POPC   H8X23826   0.100   1.443   3.067  1.1573  0.2125 -0.6518
  178POPC   H8Y23827   0.017   1.539   3.187  0.3304 -1.7010 -0.0964
  178POPC   C3923828   0.236   1.524   3.215  0.2366 -0.0577 -0.1732
  178POPC   H9X23829   0.266   1.627   3.245 -0.3683  0.5612 -1.5910
  178POPC   H9Y23830   0.321   1.493   3.150 -0.7039 -1.0434 -0.9723
  178POPC  C31023831   0.217   1.442   3.349  0.3988  0.0916  0.3561
  178POPC  H10X23832   0.143   1.361   3.332  0.4570  0.2033 -0.4364
  178POPC  H10Y23833   0.162   1.502   3.424 -2.4135 -0.7954 -0.8638
  178POPC  C31123834   0.353   1.392   3.413  0.1827  0.1860  1.1356
  178POPC  H11X23835   0.423   1.473   3.445  0.4619 -0.1781  1.4685
  178POPC  H11Y23836   0.402   1.314   3.351  1.5960  0.9998  1.1669
  178POPC  C31223837   0.332   1.310   3.547  0.0115  0.2428  0.7253
  178POPC  H12X23838   0.257   1.229   3.532  1.0075 -0.9874  2.0480
  178POPC  H12Y23839   0.291   1.384   3.619 -0.7656  0.7019 -0.1551
  178POPC  C31323840   0.466   1.255   3.585  0.7201 -0.7718 -0.1901
  178POPC  H13X23841   0.546   1.326   3.616  0.5791 -1.3356  1.6251
  178POPC  H13Y23842   0.508   1.198   3.499 -2.3117 -1.5640 -1.2729
  178POPC  C31423843   0.463   1.156   3.704  0.0174 -0.6554 -0.1382
  178POPC  H14X23844   0.420   1.061   3.666  0.3428  0.3463 -3.2937
  178POPC  H14Y23845   0.398   1.190   3.788  1.4788  1.0586  0.3608
  178POPC  C31523846   0.599   1.139   3.774  0.4801  0.1223  0.0274
  178POPC  H15X23847   0.593   1.085   3.871  0.3207  0.9057  0.4649
  178POPC  H15Y23848   0.649   1.236   3.799  1.2588  0.1168 -1.4429
  178POPC  C31623849   0.697   1.057   3.690 -0.1495  0.3365 -0.1816
  178POPC  H16X23850   0.665   0.951   3.690 -1.7428  0.7736  1.4392
  178POPC  H16Y23851   0.794   1.053   3.744  0.3717  1.8613 -0.9434
  178POPC  H16Z23852   0.716   1.086   3.584  1.6258  0.3847  0.1169
  179POPC     N23853   6.804   3.320   2.181  0.1182 -0.2870 -0.0363
  179POPC   C1223854   6.936   3.393   2.141  0.0869  1.0358 -0.0989
  179POPC  H12A23855   6.992   3.402   2.233  0.3506  0.3695 -0.1940
  179POPC  H12B23856   6.917   3.495   2.111 -0.3791  1.4732  1.5370
  179POPC   C1323857   6.702   3.339   2.072  0.3473  0.1090  0.5017
  179POPC  H13A23858   6.628   3.262   2.093 -0.6000  0.3109 -1.8570
  179POPC  H13B23859   6.661   3.439   2.074  1.3144  0.5361 -0.7427
  179POPC  H13C23860   6.740   3.328   1.972 -1.7631  0.1393 -0.3563
  179POPC   C1423861   6.821   3.167   2.201  0.0429 -0.0449  0.3800
  179POPC  H14A23862   6.877   3.134   2.114 -1.2363 -0.7417 -0.1992
  179POPC  H14B23863   6.895   3.146   2.277  1.4394 -1.1662 -1.2088
  179POPC  H14C23864   6.731   3.109   2.211 -0.8978  1.1838 -0.5945
  179POPC   C1523865   6.756   3.379   2.317 -0.2405 -0.1620  0.5462
  179POPC  H15A23866   6.653   3.367   2.345 -0.5391  2.2577  0.6575
  179POPC  H15B23867   6.758   3.486   2.301  1.2519 -0.0605  1.2737
  179POPC  H15C23868   6.829   3.361   2.394  0.0617  1.1661  0.5946
  179POPC   C1123869   7.031   3.325   2.037  0.1515  0.2849 -0.0076
  179POPC  H11A23870   7.114   3.392   2.006 -0.3693 -0.8414 -4.6513
  179POPC  H11B23871   6.982   3.295   1.942  0.7698  0.9219 -0.5444
  179POPC     P23872   7.205   3.185   2.210 -0.0728  0.0514  0.1180
  179POPC   O1323873   7.334   3.231   2.154  0.1000 -0.2938  0.6929
  179POPC   O1423874   7.201   3.041   2.248  0.3167 -0.9550 -0.7234
  179POPC   O1223875   7.097   3.209   2.092  0.3636 -0.2327  0.4483
  179POPC   O1123876   7.153   3.277   2.323 -0.1673  0.1981  0.7402
  179POPC    C123877   7.226   3.391   2.365  0.2346  0.1425  0.7397
  179POPC    HA23878   7.153   3.464   2.406 -2.0753 -1.4690 -0.3333
  179POPC    HB23879   7.282   3.443   2.284 -1.7472 -0.5314 -1.1481
  179POPC    C223880   7.311   3.361   2.493 -0.1601 -0.2127 -0.3251
  179POPC    HS23881   7.402   3.307   2.459 -0.1848 -0.0369 -0.6723
  179POPC   O2123882   7.234   3.273   2.586 -0.0890 -0.4096  0.1394
  179POPC   C2123883   7.303   3.198   2.670 -0.1647 -0.9315 -0.4887
  179POPC   O2223884   7.422   3.182   2.658 -0.4928  0.5936 -0.1153
  179POPC   C2223885   7.211   3.140   2.782  0.7583  0.1207 -0.1152
  179POPC   H2R23886   7.121   3.096   2.734  0.7053 -0.6574  0.6853
  179POPC   H2S23887   7.176   3.220   2.851  0.3760  0.3687 -0.5921
  179POPC    C323888   7.351   3.490   2.570 -0.1886  1.2248  0.4446
  179POPC    HX23889   7.257   3.546   2.593  0.8237  2.7799  0.9364
  179POPC    HY23890   7.403   3.561   2.503 -1.9843  1.0367 -1.2346
  179POPC   O3123891   7.412   3.468   2.706  0.1937 -0.4346  0.4247
  179POPC   C3123892   7.546   3.459   2.704  1.0017  0.9914 -0.2966
  179POPC   O3223893   7.626   3.462   2.609 -0.2086  0.4081  0.2706
  179POPC   C3223894   7.596   3.450   2.849  0.9983  0.3182 -0.3354
  179POPC   H2X23895   7.705   3.472   2.855  0.3991  4.0170 -0.6310
  179POPC   H2Y23896   7.579   3.346   2.884  0.8246 -0.0524 -1.4973
  179POPC   C2323897   7.286   3.026   2.854 -0.2119  0.5369 -0.0711
  179POPC   H3R23898   7.327   2.958   2.776  0.2216  0.2820  0.3706
  179POPC   H3S23899   7.215   2.969   2.918 -0.6545  3.4151  2.2115
  179POPC   C2423900   7.393   3.078   2.953 -0.0427  0.4818  0.0429
  179POPC   H4R23901   7.361   3.177   2.992 -0.2852  2.1767 -3.9632
  179POPC   H4S23902   7.480   3.093   2.885 -0.4477 -1.5693 -1.0036
  179POPC   C2523903   7.412   2.986   3.074 -0.2450 -0.0136  0.4012
  179POPC   H5R23904   7.512   3.019   3.109  0.2101 -1.6812  0.7305
  179POPC   H5S23905   7.417   2.882   3.037 -0.6979  0.6707 -1.7449
  179POPC   C2623906   7.301   3.013   3.172  0.4632  0.5873 -0.2748
  179POPC   H6R23907   7.203   3.009   3.121 -0.2636 -0.5263  1.1569
  179POPC   H6S23908   7.304   3.114   3.220 -0.4529  0.0220  1.0312
  179POPC   C2723909   7.279   2.912   3.282 -0.3852  0.1497 -0.1588
  179POPC   H7R23910   7.261   2.812   3.235  1.5495 -1.4735  2.2875
  179POPC   H7S23911   7.188   2.934   3.341 -1.6386 -1.2981 -1.4741
  179POPC   C2823912   7.403   2.891   3.376 -0.2655 -1.3866  0.6351
  179POPC   H8R23913   7.501   2.886   3.323 -0.3293 -1.7312  0.5456
  179POPC   H8S23914   7.394   2.790   3.421 -2.0488 -1.0577  1.0845
  179POPC   C2923915   7.405   2.986   3.491 -0.2104  0.5645  1.2130
  179POPC   H9123916   7.327   2.958   3.564 -0.2739 -1.3685  0.4448
  179POPC  C21023917   7.473   3.104   3.496  0.1003 -0.1665 -0.0598
  179POPC  H10123918   7.465   3.172   3.582 -0.6821 -2.0549  1.4274
  179POPC  C21123919   7.578   3.163   3.406 -0.1981  0.3756 -0.4159
  179POPC  H11R23920   7.549   3.267   3.377 -0.4647  0.1196 -1.0923
  179POPC  H11S23921   7.574   3.104   3.312 -0.4157 -1.8086  0.8998
  179POPC  C21223922   7.724   3.148   3.445 -0.1709 -0.6695  0.2318
  179POPC  H12R23923   7.785   3.172   3.356  0.7454 -3.1312  0.1276
  179POPC  H12S23924   7.746   3.044   3.478  1.0411 -0.9083 -1.2135
  179POPC  C21323925   7.752   3.238   3.569  0.3773  1.1887 -0.3331
  179POPC  H13R23926   7.684   3.200   3.649 -0.8519 -1.1645 -2.3745
  179POPC  H13S23927   7.711   3.338   3.541 -1.8801  0.2610 -0.5631
  179POPC  C21423928   7.890   3.248   3.624 -0.0501  0.4973  0.4026
  179POPC  H14R23929   7.897   3.293   3.726  0.6540  0.9303  0.1695
  179POPC  H14S23930   7.937   3.321   3.555 -1.4918  0.0593 -1.0975
  179POPC  C21523931   7.967   3.117   3.608  0.1559  0.6185 -0.1380
  179POPC  H15R23932   7.959   3.076   3.505  4.6258 -0.9436 -0.1038
  179POPC  H15S23933   7.909   3.037   3.660 -0.9461 -0.5356 -2.9579
  179POPC  C21623934   8.116   3.118   3.649 -0.0015  0.0441  1.3702
  179POPC  H16R23935   8.152   3.016   3.678  0.9601 -0.7300 -2.0987
  179POPC  H16S23936   8.135   3.175   3.743  1.1696  0.5896  0.8242
  179POPC  C21723937   8.220   3.160   3.541  1.1837 -0.1498  0.2302
  179POPC  H17R23938   8.195   3.263   3.509  0.5564  0.3622  2.2187
  179POPC  H17S23939   8.196   3.099   3.452 -1.2934  0.3210  0.4982
  179POPC  C21823940   8.361   3.174   3.590  0.2276 -0.2163  0.0110
  179POPC  H18R23941   8.404   3.074   3.615  2.7958  0.3315 -1.8799
  179POPC  H18S23942   8.375   3.230   3.685  0.9353  1.2369 -0.9245
  179POPC  H18T23943   8.418   3.225   3.510 -1.3463  0.1519 -0.9176
  179POPC   C3323944   7.516   3.554   2.935 -0.2315 -0.6148  0.2289
  179POPC   H3X23945   7.405   3.549   2.927 -0.1033 -0.8920 -1.8206
  179POPC   H3Y23946   7.534   3.656   2.895  1.7584 -0.7249  0.7596
  179POPC   C3423947   7.559   3.547   3.078 -0.3759 -0.2981 -0.2373
  179POPC   H4X23948   7.660   3.593   3.090  0.9120 -2.5322 -1.7364
  179POPC   H4Y23949   7.561   3.440   3.108 -0.1040  0.3052  2.1151
  179POPC   C3523950   7.455   3.609   3.174  0.2098  0.1710  0.3372
  179POPC   H5X23951   7.351   3.579   3.152 -0.2212  1.0095  1.1598
  179POPC   H5Y23952   7.450   3.719   3.162 -2.6680  0.2859  1.7424
  179POPC   C3623953   7.491   3.582   3.314 -0.8766  0.9428  0.1207
  179POPC   H6X23954   7.601   3.567   3.314 -1.1376 -1.2922  0.3016
  179POPC   H6Y23955   7.439   3.488   3.342 -0.6987 -0.0281 -2.5722
  179POPC   C3723956   7.442   3.696   3.399  0.2037 -0.4016  0.4103
  179POPC   H7X23957   7.343   3.723   3.356 -0.3975  1.0839  2.5243
  179POPC   H7Y23958   7.505   3.787   3.390 -1.9997  1.2427  0.6545
  179POPC   C3823959   7.434   3.681   3.553  0.6586  0.1643  0.0524
  179POPC   H8X23960   7.349   3.610   3.565  0.2297  0.6327 -0.1817
  179POPC   H8Y23961   7.411   3.777   3.603  1.0725  0.7658 -0.8868
  179POPC   C3923962   7.555   3.621   3.619 -0.1531 -0.3271 -0.3477
  179POPC   H9X23963   7.589   3.531   3.563  0.4475 -0.4045  0.1330
  179POPC   H9Y23964   7.522   3.588   3.720  2.3236 -2.6303 -0.1836
  179POPC  C31023965   7.660   3.733   3.636  0.3365  0.5020 -0.3632
  179POPC  H10X23966   7.620   3.807   3.708  1.0673 -0.5829  1.2169
  179POPC  H10Y23967   7.680   3.773   3.534 -2.4469  0.2832 -1.0707
  179POPC  C31123968   7.787   3.675   3.695 -0.5496  0.2749 -0.8516
  179POPC  H11X23969   7.831   3.586   3.646  1.1409 -0.3592  1.6636
  179POPC  H11Y23970   7.765   3.658   3.803 -0.0867 -0.5023 -0.8719
  179POPC  C31223971   7.902   3.785   3.702  0.7740  0.5018 -0.1661
  179POPC  H12X23972   7.928   3.829   3.604 -1.5876  1.6916 -0.3339
  179POPC  H12Y23973   7.998   3.741   3.736  0.7227  0.2959 -0.2884
  179POPC  C31323974   7.887   3.890   3.820  0.1649 -0.2524  0.4689
  179POPC  H13X23975   7.783   3.928   3.832  0.9214  1.9881  0.3432
  179POPC  H13Y23976   7.961   3.969   3.797  0.3034 -0.4658  0.1739
  179POPC  C31423977   7.935   3.839   3.957 -0.1053 -0.3002  0.4546
  179POPC  H14X23978   8.041   3.805   3.948 -0.7060 -1.9019 -1.0491
  179POPC  H14Y23979   7.872   3.751   3.981 -0.9422  0.4695  1.2054
  179POPC  C31523980   7.920   3.934   4.079  0.6219  0.5844  1.1548
  179POPC  H15X23981   7.814   3.965   4.066  0.5619 -0.6425 -3.1421
  179POPC  H15Y23982   7.989   4.017   4.054  2.4286 -1.7119 -2.4400
  179POPC  C31623983   7.955   3.868   4.213  0.0034  0.2195  0.0215
  179POPC  H16X23984   7.880   3.786   4.214  0.4829 -0.2423 -1.0712
  179POPC  H16Y23985   7.924   3.941   4.292  0.3852 -0.8865  1.2383
  179POPC  H16Z23986   8.060   3.832   4.224 -0.7786 -3.5278 -2.8048
  180POPC     N23987   5.916   7.025   1.849  0.8033  0.1962 -0.3376
  180POPC   C1223988   5.859   7.123   1.941  1.0693 -0.7679 -0.0399
  180POPC  H12A23989   5.893   7.221   1.913  2.5904 -2.2445 -4.1303
  180POPC  H12B23990   5.903   7.101   2.037 -0.7294  0.3190  1.0890
  180POPC   C1323991   5.912   6.886   1.911  0.2719  0.1096 -0.0821
  180POPC  H13A23992   5.976   6.878   1.998 -2.6474 -1.6848  2.0951
  180POPC  H13B23993   5.813   6.870   1.951  1.3388 -1.7765  2.0381
  180POPC  H13C23994   5.950   6.815   1.839  3.4718  2.6180 -1.0973
  180POPC   C1423995   5.836   7.021   1.724 -0.0574  0.9307  0.3286
  180POPC  H14A23996   5.870   6.939   1.662  0.2417 -0.4843  2.2893
  180POPC  H14B23997   5.729   7.013   1.736 -0.2726  1.1696 -1.1896
  180POPC  H14C23998   5.853   7.115   1.673  0.1801  0.3850 -0.6331
  180POPC   C1523999   6.057   7.051   1.804  0.5101  0.3557 -0.2721
  180POPC  H15A24000   6.081   6.985   1.722  0.3221  0.4930 -0.4387
  180POPC  H15B24001   6.127   7.040   1.885 -0.5929  0.8378  0.7811
  180POPC  H15C24002   6.066   7.153   1.770 -1.2278  0.6026 -0.0613
  180POPC   C1124003   5.705   7.107   1.969 -0.3450 -0.3738  0.3873
  180POPC  H11A24004   5.657   7.160   1.884  1.4554 -1.4825 -1.4178
  180POPC  H11B24005   5.688   7.161   2.064  0.6015 -0.7983  0.8077
  180POPC     P24006   5.524   6.914   1.949  0.5003  0.0038 -0.0344
  180POPC   O1324007   5.552   6.777   1.903 -0.4225  0.3332  0.0725
  180POPC   O1424008   5.456   7.002   1.853  0.0582  0.1621 -0.0457
  180POPC   O1224009   5.665   6.973   1.991 -0.0182  0.4326 -1.0736
  180POPC   O1124010   5.441   6.906   2.080 -0.1092 -0.4039 -0.2375
  180POPC    C124011   5.429   7.021   2.167  0.2117  0.0586 -0.5510
  180POPC    HA24012   5.441   7.117   2.112  0.4537 -0.9408 -2.3046
  180POPC    HB24013   5.512   7.016   2.241  0.6713 -1.4413 -1.1535
  180POPC    C224014   5.281   7.021   2.230 -0.0830  0.4425 -0.3765
  180POPC    HS24015   5.261   7.109   2.294 -0.9334  0.3266 -0.4605
  180POPC   O2124016   5.258   6.893   2.291 -0.6680 -0.2421 -0.2031
  180POPC   C2124017   5.295   6.893   2.421  0.5628 -0.1320 -0.2877
  180POPC   O2224018   5.341   6.986   2.483 -0.0786 -0.2551  0.2961
  180POPC   C2224019   5.269   6.755   2.482  0.2585 -0.0254 -0.3121
  180POPC   H2R24020   5.365   6.699   2.477  0.1952 -0.0802 -0.8783
  180POPC   H2S24021   5.195   6.693   2.428 -0.2189  0.2109  0.0639
  180POPC    C324022   5.168   7.026   2.120  0.0173  0.1677 -0.2384
  180POPC    HX24023   5.186   6.944   2.047  0.9998 -1.6975  1.9944
  180POPC    HY24024   5.168   7.114   2.052 -2.0374 -0.9517 -1.8240
  180POPC   O3124025   5.038   7.000   2.175 -0.3620  0.5425 -0.0548
  180POPC   C3124026   4.979   7.109   2.226 -0.1547  0.2001  0.3468
  180POPC   O3224027   5.014   7.220   2.197  0.5480  0.6438  0.5298
  180POPC   C3224028   4.854   7.062   2.306 -0.7228  0.1605  0.1484
  180POPC   H2X24029   4.884   6.992   2.387  1.8589  1.6927  0.6243
  180POPC   H2Y24030   4.786   7.008   2.237 -0.8845 -0.0528  0.4734
  180POPC   C2324031   5.223   6.769   2.625  0.4811 -0.2288  0.4169
  180POPC   H3R24032   5.304   6.831   2.669  0.7232 -0.2631  0.0269
  180POPC   H3S24033   5.232   6.665   2.664 -0.0483 -0.6185 -0.4890
  180POPC   C2424034   5.076   6.813   2.643 -0.4177 -0.0553  0.8113
  180POPC   H4R24035   5.005   6.741   2.597 -1.4109  0.6534  1.2080
  180POPC   H4S24036   5.053   6.911   2.594 -0.8840  0.0218  1.1827
  180POPC   C2524037   5.025   6.820   2.787 -0.4817 -0.4470 -0.0147
  180POPC   H5R24038   5.037   6.723   2.841 -1.3227 -0.3509  0.3527
  180POPC   H5S24039   4.920   6.853   2.797 -1.2009 -2.4516 -0.4278
  180POPC   C2624040   5.103   6.924   2.863 -0.2423 -0.5776 -0.1200
  180POPC   H6R24041   5.086   7.027   2.824  1.2627  0.4743  1.8297
  180POPC   H6S24042   5.212   6.910   2.847 -0.4436 -1.8578 -0.4792
  180POPC   C2724043   5.083   6.922   3.015 -0.3253 -1.1253 -0.6012
  180POPC   H7R24044   5.159   6.992   3.055 -1.0663  0.1656 -1.3533
  180POPC   H7S24045   5.096   6.821   3.058 -1.8863 -0.9909  0.2935
  180POPC   C2824046   4.948   6.975   3.055  0.3431 -0.3162 -0.0034
  180POPC   H8R24047   4.910   6.910   3.137 -1.3653 -1.2528 -1.4655
  180POPC   H8S24048   4.882   6.976   2.965  0.3363  1.5765 -0.0294
  180POPC   C2924049   4.943   7.117   3.109  0.6249 -0.0576 -0.1166
  180POPC   H9124050   4.977   7.197   3.042  0.5230  0.5772  0.5752
  180POPC  C21024051   4.912   7.157   3.234 -0.5816  0.3811 -0.4582
  180POPC  H10124052   4.883   7.262   3.246  1.7780  0.9156  1.4043
  180POPC  C21124053   4.883   7.054   3.346 -0.2566  0.3232 -0.0431
  180POPC  H11R24054   4.802   6.982   3.323 -0.5143  0.2325  1.0778
  180POPC  H11S24055   4.830   7.112   3.425  0.1185  0.5247  0.0637
  180POPC  C21224056   5.008   6.998   3.422  0.4217 -0.0658  0.4650
  180POPC  H12R24057   5.057   6.914   3.368  0.9272 -0.2907  1.2615
  180POPC  H12S24058   4.962   6.939   3.504  0.5934 -0.9634 -0.0758
  180POPC  C21324059   5.107   7.104   3.464  0.2475  0.4708  0.0703
  180POPC  H13R24060   5.038   7.175   3.513 -1.4233 -0.6337 -0.6020
  180POPC  H13S24061   5.137   7.175   3.384  1.4453  0.5043  0.5239
  180POPC  C21424062   5.222   7.062   3.563 -0.1922 -0.9342 -0.6413
  180POPC  H14R24063   5.294   7.010   3.496 -0.2030  0.0245 -1.4261
  180POPC  H14S24064   5.178   6.993   3.637 -0.2470  0.5799  0.7972
  180POPC  C21524065   5.281   7.187   3.629 -0.0456  0.1133 -0.4875
  180POPC  H15R24066   5.322   7.255   3.551  0.2255  1.2146  0.6023
  180POPC  H15S24067   5.372   7.164   3.688 -1.3745  1.5714  2.2869
  180POPC  C21624068   5.188   7.279   3.712 -1.0844 -0.5067  0.6988
  180POPC  H16R24069   5.144   7.223   3.797  0.1538 -2.5485  0.0526
  180POPC  H16S24070   5.105   7.314   3.646  1.2273  1.0426 -1.5822
  180POPC  C21724071   5.250   7.412   3.750  0.1561 -0.2099  0.6237
  180POPC  H17R24072   5.175   7.469   3.809  1.0031  0.1615  1.3697
  180POPC  H17S24073   5.251   7.483   3.664 -1.0441  2.0129  2.3271
  180POPC  C21824074   5.380   7.410   3.824 -0.1585 -0.0260  0.5243
  180POPC  H18R24075   5.416   7.506   3.867  0.8179 -0.1781  0.0827
  180POPC  H18S24076   5.457   7.378   3.751 -2.4584  0.0651 -2.1029
  180POPC  H18T24077   5.384   7.338   3.909 -0.2225  1.7274  2.0707
  180POPC   C3324078   4.798   7.189   2.363 -0.2304 -0.1002 -0.3490
  180POPC   H3X24079   4.772   7.262   2.284 -0.1026 -0.4611 -0.7260
  180POPC   H3Y24080   4.877   7.243   2.420 -1.2889  2.2930 -1.0343
  180POPC   C3424081   4.684   7.166   2.464 -0.5937 -0.8368  0.4992
  180POPC   H4X24082   4.597   7.138   2.401 -0.8190  0.8745 -0.0023
  180POPC   H4Y24083   4.658   7.262   2.514  0.9653 -0.8032  1.3068
  180POPC   C3524084   4.697   7.049   2.561 -0.1093  0.1165  0.2423
  180POPC   H5X24085   4.801   7.040   2.600 -0.6278 -0.4857  1.5703
  180POPC   H5Y24086   4.697   6.960   2.494  2.4800  0.0469  0.2220
  180POPC   C3624087   4.598   7.042   2.675 -0.1186  0.2952 -0.3632
  180POPC   H6X24088   4.609   6.943   2.723  1.0904 -0.6697 -2.4825
  180POPC   H6Y24089   4.495   7.052   2.633  0.0255 -1.9263 -1.3953
  180POPC   C3724090   4.613   7.145   2.785 -0.2269  0.3914  0.3422
  180POPC   H7X24091   4.593   7.245   2.741 -1.1496  0.7250  1.4528
  180POPC   H7Y24092   4.717   7.142   2.824  0.2328 -3.2158 -0.8003
  180POPC   C3824093   4.529   7.126   2.912 -0.1953 -0.7520 -0.0861
  180POPC   H8X24094   4.539   7.025   2.957 -1.0615 -0.7451  0.1490
  180POPC   H8Y24095   4.421   7.152   2.904  0.0929  1.4068  2.0896
  180POPC   C3924096   4.594   7.210   3.023 -0.3909 -0.3606 -0.3233
  180POPC   H9X24097   4.595   7.318   2.997  1.5407 -0.3101 -0.1321
  180POPC   H9Y24098   4.699   7.179   3.042 -0.2169  0.1073 -0.5138
  180POPC  C31024099   4.528   7.194   3.160 -0.5471 -0.0113  0.5656
  180POPC  H10X24100   4.605   7.219   3.236 -0.9916 -0.1327  1.0592
  180POPC  H10Y24101   4.503   7.088   3.182  0.6568 -0.6033 -0.7365
  180POPC  C31124102   4.400   7.269   3.189 -0.5879 -0.8321  0.4403
  180POPC  H11X24103   4.322   7.232   3.120 -0.1154  0.2873 -0.7356
  180POPC  H11Y24104   4.411   7.377   3.162 -1.6966 -1.3435 -2.3205
  180POPC  C31224105   4.336   7.251   3.329 -0.0203  0.3924  0.1775
  180POPC  H12X24106   4.267   7.337   3.342 -1.0888 -0.3544 -0.3888
  180POPC  H12Y24107   4.414   7.253   3.407 -0.2510  0.9818  0.3992
  180POPC  C31324108   4.271   7.116   3.356  0.3029 -0.1515 -0.3684
  180POPC  H13X24109   4.347   7.040   3.328  0.8088 -0.4433  1.6331
  180POPC  H13Y24110   4.190   7.107   3.281  0.3564 -1.0615 -0.3283
  180POPC  C31424111   4.216   7.075   3.490  0.1560  0.1715 -0.9947
  180POPC  H14X24112   4.292   7.060   3.569 -3.8393 -4.3220  2.5971
  180POPC  H14Y24113   4.177   6.971   3.486  2.3435 -0.7696  0.3227
  180POPC  C31524114   4.112   7.161   3.551  0.1670 -0.3191  0.4984
  180POPC  H15X24115   4.047   7.197   3.468  1.2889  2.7139  0.7951
  180POPC  H15Y24116   4.159   7.255   3.586 -2.1661  0.0052  3.1799
  180POPC  C31624117   4.044   7.098   3.672  0.6051  0.3319 -0.2306
  180POPC  H16X24118   3.998   7.005   3.634 -0.3061  0.8160 -0.3499
  180POPC  H16Y24119   3.956   7.151   3.716 -0.1200 -2.6489  2.2982
  180POPC  H16Z24120   4.112   7.083   3.759 -0.4243 -0.1242  0.5130
  181POPC     N24121   1.682   5.209   2.103  0.0802 -0.7758  0.2143
  181POPC   C1224122   1.616   5.311   2.194  0.1589 -0.4765 -0.0957
  181POPC  H12A24123   1.686   5.386   2.227  0.7612 -1.4811  0.9867
  181POPC  H12B24124   1.579   5.263   2.283 -1.4696  1.5589  0.4142
  181POPC   C1324125   1.732   5.274   1.972  0.2159 -0.1911  0.4069
  181POPC  H13A24126   1.659   5.334   1.919 -0.1226  1.2655  2.4324
  181POPC  H13B24127   1.821   5.333   1.985 -0.7663  1.9159 -1.6086
  181POPC  H13C24128   1.767   5.189   1.915  2.2081 -1.0292  2.7359
  181POPC   C1424129   1.808   5.165   2.172  0.6466 -0.4346  0.7089
  181POPC  H14A24130   1.794   5.135   2.275 -0.7255  1.8149  1.2368
  181POPC  H14B24131   1.845   5.081   2.115  1.9271 -0.9049  2.1632
  181POPC  H14C24132   1.864   5.257   2.177 -1.1978  1.0480 -2.5985
  181POPC   C1524133   1.608   5.077   2.087  0.6216 -0.2976  0.7383
  181POPC  H15A24134   1.591   5.029   2.182  1.7567  1.2541  1.7761
  181POPC  H15B24135   1.662   5.002   2.031 -1.8795 -1.2540 -0.5775
  181POPC  H15C24136   1.516   5.092   2.032  0.7620  1.3208  0.8902
  181POPC   C1124137   1.488   5.389   2.143  0.1605  0.3481 -0.1606
  181POPC  H11A24138   1.428   5.441   2.220 -0.5462 -0.5228 -0.1049
  181POPC  H11B24139   1.420   5.307   2.111  0.4065  1.2356 -3.3094
  181POPC     P24140   1.589   5.596   2.022 -0.1136  0.1835 -0.2417
  181POPC   O1324141   1.594   5.655   1.888  0.0094 -0.6179  0.1992
  181POPC   O1424142   1.722   5.576   2.088 -0.4983  0.5343  0.0489
  181POPC   O1224143   1.513   5.458   2.018 -0.8845 -0.5117 -0.6254
  181POPC   O1124144   1.494   5.679   2.111  0.7303  0.1208 -0.3494
  181POPC    C124145   1.538   5.770   2.209 -0.2025  0.1249 -0.7865
  181POPC    HA24146   1.446   5.831   2.227 -0.9009 -0.9631 -0.5843
  181POPC    HB24147   1.618   5.831   2.162  0.4710 -0.0274  0.1489
  181POPC    C224148   1.586   5.707   2.340  0.1038 -0.0524  0.1472
  181POPC    HS24149   1.672   5.638   2.324  0.3262 -0.5145  2.8594
  181POPC   O2124150   1.476   5.645   2.403 -0.7691 -0.1781 -0.6072
  181POPC   C2124151   1.505   5.546   2.492  0.3757 -0.3008  0.1854
  181POPC   O2224152   1.615   5.501   2.520 -0.1163  0.2364  0.7510
  181POPC   C2224153   1.371   5.503   2.567 -0.7772 -0.2108 -0.2516
  181POPC   H2R24154   1.348   5.395   2.552  0.2969 -0.8096  1.9136
  181POPC   H2S24155   1.283   5.557   2.527 -0.2086  0.6040 -0.4089
  181POPC    C324156   1.642   5.820   2.439  0.1099  0.2307 -0.9983
  181POPC    HX24157   1.562   5.890   2.468 -0.2636 -0.9624  0.9731
  181POPC    HY24158   1.701   5.898   2.387  0.6328  0.1455 -0.5450
  181POPC   O3124159   1.705   5.765   2.557 -0.3530 -0.0162  0.1280
  181POPC   C3124160   1.835   5.740   2.555 -0.0886  0.0060  0.1474
  181POPC   O3224161   1.903   5.744   2.452 -0.0468  0.2533 -0.3361
  181POPC   C3224162   1.897   5.724   2.694  0.2097 -0.3587 -0.3451
  181POPC   H2X24163   1.977   5.801   2.702  2.4124 -2.6665  1.0166
  181POPC   H2Y24164   1.936   5.621   2.706 -0.7269 -0.4029  3.2546
  181POPC   C2324165   1.373   5.537   2.716 -0.4133  0.0733 -0.1182
  181POPC   H3R24166   1.440   5.464   2.766  2.3107  1.1244 -2.0107
  181POPC   H3S24167   1.266   5.531   2.746  0.3291 -0.5482  2.6625
  181POPC   C2424168   1.400   5.684   2.753  0.3820 -0.4105  0.2987
  181POPC   H4R24169   1.341   5.748   2.683  0.5668 -0.9190 -0.3337
  181POPC   H4S24170   1.502   5.726   2.742 -0.0195  0.6665  0.5513
  181POPC   C2524171   1.364   5.726   2.889  0.0676  0.4187 -0.8545
  181POPC   H5R24172   1.266   5.678   2.912 -0.1173  0.7921 -0.8696
  181POPC   H5S24173   1.349   5.835   2.899  1.1506  0.4983  0.0293
  181POPC   C2624174   1.463   5.670   2.996  0.5654  0.1396 -0.2070
  181POPC   H6R24175   1.560   5.722   2.985  1.1903 -1.2095 -1.1866
  181POPC   H6S24176   1.479   5.561   2.986 -1.2647 -0.3132  1.1777
  181POPC   C2724177   1.413   5.698   3.141  0.0215 -0.0497 -0.8666
  181POPC   H7R24178   1.405   5.809   3.136 -0.5740 -0.1028 -1.1200
  181POPC   H7S24179   1.486   5.662   3.217  1.3478 -1.9006 -2.9008
  181POPC   C2824180   1.274   5.636   3.179  0.0825 -0.1160 -0.1144
  181POPC   H8R24181   1.279   5.527   3.161 -0.4479 -0.2057  0.2665
  181POPC   H8S24182   1.203   5.681   3.106  0.3401  0.1419 -0.2099
  181POPC   C2924183   1.240   5.674   3.322 -1.0679 -0.3194  0.3535
  181POPC   H9124184   1.300   5.612   3.390 -1.2112 -1.2802 -0.3649
  181POPC  C21024185   1.147   5.764   3.368 -0.1556  0.1830  0.3259
  181POPC  H10124186   1.141   5.770   3.478  1.7128  0.2698  0.4565
  181POPC  C21124187   1.051   5.844   3.285  0.6160 -0.2615 -0.2188
  181POPC  H11R24188   1.080   5.831   3.179  2.3334 -2.6304  0.4562
  181POPC  H11S24189   1.050   5.947   3.326  0.0412 -0.9000  1.4900
  181POPC  C21224190   0.904   5.792   3.306 -0.7413 -0.3217  0.1573
  181POPC  H12R24191   0.879   5.788   3.415 -0.3439 -1.0805  0.2256
  181POPC  H12S24192   0.895   5.691   3.260 -0.4501  1.2680 -3.7788
  181POPC  C21324193   0.809   5.878   3.225 -0.3596  0.3165  0.2485
  181POPC  H13R24194   0.742   5.808   3.170  1.0167 -0.6182 -0.2722
  181POPC  H13S24195   0.857   5.934   3.142 -1.3355  2.0520  0.8048
  181POPC  C21424196   0.722   5.971   3.313 -0.1595  0.3158  0.1440
  181POPC  H14R24197   0.695   5.923   3.410  1.5881  1.6693  1.3573
  181POPC  H14S24198   0.626   5.997   3.263 -0.2528 -0.2639  0.0164
  181POPC  C21524199   0.792   6.101   3.350 -1.1885 -0.1840  0.1492
  181POPC  H15R24200   0.805   6.151   3.251 -0.8688 -0.1209  0.2229
  181POPC  H15S24201   0.891   6.073   3.391  0.5835  2.0728 -2.2182
  181POPC  C21624202   0.722   6.169   3.465 -0.4821  0.1303 -0.0906
  181POPC  H16R24203   0.717   6.099   3.551  1.5245  0.2372  0.1603
  181POPC  H16S24204   0.613   6.186   3.451 -0.9458 -0.7434  2.0101
  181POPC  C21724205   0.789   6.300   3.517 -0.2102 -0.3704 -0.3495
  181POPC  H17R24206   0.748   6.360   3.601  1.9102  2.2132 -1.0263
  181POPC  H17S24207   0.779   6.353   3.420  1.3567 -0.0967 -0.3884
  181POPC  C21824208   0.933   6.281   3.550 -0.2241  0.2212  0.1361
  181POPC  H18R24209   0.993   6.371   3.571 -0.1445 -0.2072  1.8820
  181POPC  H18S24210   0.990   6.238   3.465 -0.4745 -0.9438  0.5400
  181POPC  H18T24211   0.951   6.224   3.644 -0.2488  0.7135  0.4419
  181POPC   C3324212   1.785   5.746   2.794 -0.3513  0.5029 -0.2464
  181POPC   H3X24213   1.710   5.665   2.780  0.0566 -0.2625  1.6503
  181POPC   H3Y24214   1.736   5.842   2.768  0.2546  0.5782 -1.1659
  181POPC   C3424215   1.837   5.735   2.941  0.1432 -0.6205  0.6653
  181POPC   H4X24216   1.765   5.790   3.006 -1.3330  0.0705 -1.4489
  181POPC   H4Y24217   1.935   5.783   2.957  0.7115 -1.7753  0.7876
  181POPC   C3524218   1.836   5.593   2.986 -0.2725  0.8831  0.2384
  181POPC   H5X24219   1.886   5.525   2.914 -0.2147  0.8785  0.2823
  181POPC   H5Y24220   1.732   5.556   2.995 -1.0122  3.0808  1.5488
  181POPC   C3624221   1.903   5.566   3.124  0.2324 -1.0605  0.3878
  181POPC   H6X24222   1.851   5.614   3.210 -0.4612 -1.9901  0.4929
  181POPC   H6Y24223   2.006   5.606   3.113  0.3908 -1.2962  0.9728
  181POPC   C3724224   1.932   5.417   3.145 -0.0499 -0.1077 -0.2033
  181POPC   H7X24225   1.972   5.384   3.047 -0.9671 -0.4911 -0.4562
  181POPC   H7Y24226   1.842   5.354   3.162  0.7608 -1.2378 -0.0249
  181POPC   C3824227   2.041   5.399   3.251  0.1553 -0.8541  0.3687
  181POPC   H8X24228   1.999   5.432   3.349 -0.4994 -2.1938  0.5649
  181POPC   H8Y24229   2.133   5.457   3.227  0.2568 -0.4581  1.6020
  181POPC   C3924230   2.095   5.256   3.271 -0.1909  0.0535 -0.5089
  181POPC   H9X24231   2.148   5.223   3.179  0.1867 -1.1387  0.1247
  181POPC   H9Y24232   2.012   5.183   3.282 -0.8548  0.6859 -1.1819
  181POPC  C31024233   2.194   5.227   3.391 -0.0394 -0.0056  0.1957
  181POPC  H10X24234   2.256   5.317   3.415  0.7785 -0.9910  2.0263
  181POPC  H10Y24235   2.264   5.148   3.359 -0.8932 -1.0758  0.8955
  181POPC  C31124236   2.116   5.167   3.514  0.8139  0.1734  0.4244
  181POPC  H11X24237   2.178   5.155   3.606 -0.2671  0.8143  1.2521
  181POPC  H11Y24238   2.079   5.068   3.479 -0.0334  0.6684 -0.0817
  181POPC  C31224239   1.994   5.251   3.556 -0.8458 -0.4409  0.3130
  181POPC  H12X24240   1.930   5.251   3.465  0.8426 -0.8435 -0.9268
  181POPC  H12Y24241   2.034   5.353   3.570  3.3288 -1.9541  0.7968
  181POPC  C31324242   1.928   5.221   3.686 -0.0250  0.4464  0.0270
  181POPC  H13X24243   2.006   5.248   3.760  0.9453  1.8478 -1.4341
  181POPC  H13Y24244   1.904   5.113   3.687  1.0811  0.1849  1.3696
  181POPC  C31424245   1.793   5.293   3.712  0.6787  0.0875 -0.5830
  181POPC  H14X24246   1.735   5.293   3.617  1.7796 -0.6462 -1.2871
  181POPC  H14Y24247   1.815   5.399   3.736 -0.1204  0.6518 -2.1748
  181POPC  C31524248   1.693   5.237   3.815  0.0755 -0.3334  0.1910
  181POPC  H15X24249   1.727   5.244   3.920  1.5841  1.6869 -0.3640
  181POPC  H15Y24250   1.675   5.134   3.777  0.4248 -0.0693 -0.7211
  181POPC  C31624251   1.559   5.310   3.794 -0.5156  0.3436 -0.9709
  181POPC  H16X24252   1.510   5.268   3.704 -3.8228 -0.1430  0.9254
  181POPC  H16Y24253   1.564   5.420   3.781  0.5095  0.5379  0.7140
  181POPC  H16Z24254   1.498   5.294   3.886  1.5609  1.0181  0.6283
  182POPC     N24255   7.914   3.695   2.060 -0.2176 -0.0480 -0.5088
  182POPC   C1224256   7.824   3.631   2.161  0.3752  0.6199  0.1611
  182POPC  H12A24257   7.887   3.577   2.230  0.9282  2.4484  1.1757
  182POPC  H12B24258   7.770   3.546   2.124  2.0475  0.0515 -1.0816
  182POPC   C1324259   8.005   3.789   2.130 -0.2824  0.0323  0.3518
  182POPC  H13A24260   8.085   3.741   2.183  0.6638  3.1346  1.9416
  182POPC  H13B24261   8.044   3.853   2.052 -1.3345  0.0463 -0.1816
  182POPC  H13C24262   7.956   3.850   2.204  2.4378  2.5150  0.2791
  182POPC   C1424263   7.998   3.585   1.997 -0.4066  0.2649 -0.9970
  182POPC  H14A24264   7.927   3.523   1.944 -1.9298  0.7126  0.4502
  182POPC  H14B24265   8.072   3.621   1.927 -1.0738  0.7963 -1.4360
  182POPC  H14C24266   8.054   3.528   2.070 -0.8258 -0.5896 -1.3357
  182POPC   C1524267   7.835   3.768   1.956 -0.8963  0.5988 -0.3158
  182POPC  H15A24268   7.773   3.837   2.012  0.4629  1.3432  0.3016
  182POPC  H15B24269   7.765   3.701   1.907  0.9393 -0.2278 -1.9270
  182POPC  H15C24270   7.896   3.828   1.891  3.3712 -2.0396  0.8983
  182POPC   C1124271   7.739   3.712   2.254  0.5081 -0.2161 -0.0634
  182POPC  H11A24272   7.809   3.771   2.317  1.7193 -0.1810 -1.3831
  182POPC  H11B24273   7.688   3.651   2.331  0.6934 -3.6544 -2.4221
  182POPC     P24274   7.502   3.762   2.154  0.3046  0.3360 -0.1181
  182POPC   O1324275   7.502   3.629   2.089  0.3776  1.0007 -0.1925
  182POPC   O1424276   7.431   3.869   2.079 -0.2263 -0.5184 -0.9433
  182POPC   O1224277   7.648   3.802   2.189  0.3718 -0.2865  0.2001
  182POPC   O1124278   7.438   3.740   2.294  0.1686  0.1005 -0.3118
  182POPC    C124279   7.386   3.843   2.379  0.1318  0.7707  0.1474
  182POPC    HA24280   7.307   3.803   2.447 -1.6833  1.1307 -1.6330
  182POPC    HB24281   7.329   3.918   2.319 -2.0092 -1.4928 -0.8598
  182POPC    C224282   7.491   3.916   2.466  0.1214 -0.8549 -1.0115
  182POPC    HS24283   7.563   3.962   2.395 -1.7120  2.9072 -0.6901
  182POPC   O2124284   7.550   3.826   2.558  0.4087  0.1521 -0.2749
  182POPC   C2124285   7.676   3.868   2.597 -0.1725 -0.2023 -0.1043
  182POPC   O2224286   7.728   3.968   2.551 -0.3918 -0.3417  0.3283
  182POPC   C2224287   7.734   3.761   2.688 -0.1207  0.2700 -0.9506
  182POPC   H2R24288   7.789   3.692   2.621 -2.2081 -1.1314 -1.3144
  182POPC   H2S24289   7.647   3.711   2.736 -0.5519  0.3002 -1.6889
  182POPC    C324290   7.423   4.035   2.550 -0.4753  0.3650 -0.4131
  182POPC    HX24291   7.394   4.097   2.463 -0.4695 -1.0004 -1.4299
  182POPC    HY24292   7.499   4.100   2.598  1.5649 -1.0543 -1.5231
  182POPC   O3124293   7.311   4.000   2.631 -0.0651  0.3732  0.4445
  182POPC   C3124294   7.328   3.969   2.760 -0.3187  0.1994 -0.4125
  182POPC   O3224295   7.437   3.969   2.818 -0.0625  1.0763 -0.0437
  182POPC   C3224296   7.198   3.922   2.823  0.6104  0.2385  0.5414
  182POPC   H2X24297   7.144   3.860   2.749  1.2274  0.7001 -0.3016
  182POPC   H2Y24298   7.136   4.011   2.851  0.5591 -0.0453  1.3644
  182POPC   C2324299   7.819   3.821   2.800 -0.2327 -0.0279  0.3329
  182POPC   H3R24300   7.909   3.873   2.761 -0.5086  0.6513  0.5847
  182POPC   H3S24301   7.862   3.731   2.848  2.9969  1.6538  0.8492
  182POPC   C2424302   7.736   3.895   2.904 -0.0400 -0.5885  0.0249
  182POPC   H4R24303   7.657   3.827   2.942 -0.6547  0.0993  0.0141
  182POPC   H4S24304   7.690   3.986   2.859  0.9620 -0.1647 -0.1725
  182POPC   C2524305   7.813   3.915   3.034  0.6050 -0.3935 -0.1580
  182POPC   H5R24306   7.885   3.998   3.021 -0.4601  0.7491  0.9070
  182POPC   H5S24307   7.870   3.828   3.074 -2.8167 -2.0636  1.5546
  182POPC   C2624308   7.718   3.977   3.135 -0.3771 -0.4367 -0.5207
  182POPC   H6R24309   7.636   3.905   3.156  0.2435 -1.4939 -1.5952
  182POPC   H6S24310   7.655   4.060   3.099 -1.8355 -1.4840 -0.4709
  182POPC   C2724311   7.791   4.015   3.265  0.0166  0.1033 -0.7580
  182POPC   H7R24312   7.864   4.098   3.254  0.6818 -0.4163 -0.4125
  182POPC   H7S24313   7.850   3.926   3.298 -1.3943 -0.9079 -0.8834
  182POPC   C2824314   7.701   4.053   3.381 -0.7655 -0.0498  0.1200
  182POPC   H8R24315   7.766   4.025   3.466  0.7871  0.0307 -0.9990
  182POPC   H8S24316   7.606   3.995   3.381  0.0416 -1.4248  0.6248
  182POPC   C2924317   7.692   4.206   3.385 -0.3609  0.3702  0.2430
  182POPC   H9124318   7.670   4.258   3.290 -0.0568  0.2136  0.0867
  182POPC  C21024319   7.711   4.283   3.494 -1.0115  0.7521  0.4246
  182POPC  H10124320   7.682   4.389   3.490 -1.3913  0.6462  0.3394
  182POPC  C21124321   7.755   4.235   3.632 -0.0682 -0.2362  0.3921
  182POPC  H11R24322   7.731   4.131   3.664  0.3038 -0.2766  0.5490
  182POPC  H11S24323   7.701   4.306   3.698 -1.9774 -1.1581 -0.1103
  182POPC  C21224324   7.907   4.244   3.662 -0.5993  0.2479 -0.1521
  182POPC  H12R24325   7.952   4.339   3.628  0.4504  0.4452  1.6634
  182POPC  H12S24326   7.965   4.157   3.623  0.3997  1.1074 -0.6294
  182POPC  C21324327   7.938   4.246   3.812  0.4907 -0.4793 -0.1482
  182POPC  H13R24328   8.036   4.200   3.837  0.0858 -0.1678  2.2236
  182POPC  H13S24329   7.866   4.181   3.865 -1.0320  1.3714  0.1680
  182POPC  C21424330   7.934   4.386   3.875 -0.1494 -0.4601 -0.7930
  182POPC  H14R24331   7.828   4.415   3.894 -0.4396 -1.6915 -0.4073
  182POPC  H14S24332   7.979   4.467   3.814  0.5004  2.2883  2.9919
  182POPC  C21524333   8.014   4.395   4.015  0.1613  0.2624  0.5031
  182POPC  H15R24334   8.117   4.355   4.006 -0.8870 -2.6991  0.7435
  182POPC  H15S24335   7.966   4.321   4.083 -0.7679  2.0109  1.8379
  182POPC  C21624336   8.006   4.538   4.074  0.4549  0.3735 -0.1705
  182POPC  H16R24337   7.899   4.565   4.086  0.7096  1.2791  0.0736
  182POPC  H16S24338   8.054   4.596   3.993  2.3967 -0.0189  0.6562
  182POPC  C21724339   8.088   4.549   4.200 -0.5949  0.0145  0.5676
  182POPC  H17R24340   8.194   4.541   4.168 -1.2567  0.7054 -2.0065
  182POPC  H17S24341   8.074   4.466   4.272  1.4296 -0.3385  0.6139
  182POPC  C21824342   8.075   4.688   4.263  0.4295 -0.0040  0.3581
  182POPC  H18R24343   8.131   4.689   4.359  0.2947  1.0080  0.4341
  182POPC  H18S24344   7.970   4.710   4.292 -0.0171 -0.9085 -0.4994
  182POPC  H18T24345   8.106   4.768   4.193 -0.0448  1.1765  1.4615
  182POPC   C3324346   7.228   3.832   2.949  0.0149 -0.9147  0.0703
  182POPC   H3X24347   7.267   3.900   3.028 -1.5358  0.8340 -0.5891
  182POPC   H3Y24348   7.302   3.752   2.928  0.9770  0.0772 -0.4045
  182POPC   C3424349   7.094   3.770   3.000  0.6555 -0.7486  0.0407
  182POPC   H4X24350   7.108   3.739   3.106  0.3272  0.1874  0.3649
  182POPC   H4Y24351   7.084   3.680   2.936 -0.3263 -0.3198 -0.4164
  182POPC   C3524352   6.970   3.856   2.996  0.0670 -0.8611 -0.0885
  182POPC   H5X24353   6.956   3.899   2.894 -4.7229 -3.8526 -0.9676
  182POPC   H5Y24354   6.974   3.936   3.073 -0.1235  0.8163 -1.7359
  182POPC   C3624355   6.848   3.772   3.028  0.0874 -0.2011 -0.8900
  182POPC   H6X24356   6.837   3.701   2.944 -2.3607 -2.5687  1.2610
  182POPC   H6Y24357   6.757   3.835   3.027 -0.3803 -0.8447 -0.2286
  182POPC   C3724358   6.861   3.706   3.161 -0.6394  0.1605 -0.3310
  182POPC   H7X24359   6.918   3.760   3.239 -1.0180 -2.6891  2.0829
  182POPC   H7Y24360   6.896   3.602   3.148 -0.2990  0.0073  1.5930
  182POPC   C3824361   6.724   3.695   3.234 -0.0172 -0.5216  0.4576
  182POPC   H8X24362   6.684   3.608   3.178 -0.2066 -0.5245  0.5964
  182POPC   H8Y24363   6.662   3.787   3.221 -0.8444 -1.0915  0.2575
  182POPC   C3924364   6.719   3.661   3.384 -0.2215  0.1856 -0.3496
  182POPC   H9X24365   6.754   3.749   3.442 -0.6753  0.0056  0.2079
  182POPC   H9Y24366   6.778   3.570   3.407  0.1108  0.3095 -0.6985
  182POPC  C31024367   6.574   3.641   3.438 -0.2070 -0.3201 -0.1956
  182POPC  H10X24368   6.518   3.560   3.387 -2.1157 -1.0365  2.8250
  182POPC  H10Y24369   6.509   3.728   3.415 -0.9537 -0.9673 -0.5701
  182POPC  C31124370   6.582   3.625   3.588  0.2380  0.7153  0.4933
  182POPC  H11X24371   6.656   3.700   3.624 -0.5745  2.4301 -1.2442
  182POPC  H11Y24372   6.630   3.526   3.602  2.2437  1.5628 -0.1173
  182POPC  C31224373   6.443   3.624   3.663  0.1715  0.3441  0.6149
  182POPC  H12X24374   6.396   3.525   3.646  0.4144 -0.1528  2.5933
  182POPC  H12Y24375   6.372   3.696   3.616 -2.6821 -2.2943  0.5703
  182POPC  C31324376   6.439   3.642   3.816 -0.2576 -0.3218 -0.3955
  182POPC  H13X24377   6.342   3.674   3.860  0.2064  1.0492 -0.3238
  182POPC  H13Y24378   6.506   3.721   3.856 -2.1106  1.2451 -0.2396
  182POPC  C31424379   6.490   3.510   3.877  1.1237  0.0152 -0.4923
  182POPC  H14X24380   6.595   3.483   3.849  0.6031 -1.2975 -1.2581
  182POPC  H14Y24381   6.428   3.429   3.835 -3.1851  2.6066  0.2945
  182POPC  C31524382   6.464   3.510   4.027  0.0198  0.8114  0.8472
  182POPC  H15X24383   6.473   3.409   4.073  1.2638  0.0493 -0.9666
  182POPC  H15Y24384   6.361   3.545   4.052 -0.5521  0.1941 -0.5443
  182POPC  C31624385   6.557   3.599   4.103  0.6716 -0.7098 -0.4604
  182POPC  H16X24386   6.516   3.616   4.204 -2.6245  0.0607 -1.8063
  182POPC  H16Y24387   6.569   3.700   4.057  0.3861 -1.3500 -2.0208
  182POPC  H16Z24388   6.660   3.556   4.111  0.6571 -0.3628  2.6700
  183POPC     N24389   0.629   0.373   1.506 -0.2913 -0.4604  0.1146
  183POPC   C1224390   0.478   0.340   1.513  0.3202 -0.2321  0.5085
  183POPC  H12A24391   0.412   0.415   1.471  0.4820 -0.0918  0.5032
  183POPC  H12B24392   0.454   0.340   1.618 -0.9312 -0.4163  0.2431
  183POPC   C1324393   0.705   0.259   1.566 -0.2651  0.1442  0.1418
  183POPC  H13A24394   0.666   0.165   1.531  0.1160  0.3115 -0.7410
  183POPC  H13B24395   0.810   0.251   1.545 -0.0800  1.7208  0.3308
  183POPC  H13C24396   0.697   0.261   1.674  0.5140  1.0015  0.2022
  183POPC   C1424397   0.679   0.386   1.364 -0.5022  0.1395  0.6006
  183POPC  H14A24398   0.645   0.302   1.305  0.3115 -1.8018  2.7347
  183POPC  H14B24399   0.640   0.472   1.311 -2.8348  0.1598  2.1805
  183POPC  H14C24400   0.786   0.396   1.377 -0.0505 -4.0651  1.4718
  183POPC   C1524401   0.663   0.501   1.580  0.6274  0.6504 -0.1664
  183POPC  H15A24402   0.613   0.590   1.546 -0.0813  0.3568  0.0864
  183POPC  H15B24403   0.768   0.524   1.573  0.8842  0.7078  2.7547
  183POPC  H15C24404   0.645   0.486   1.685 -0.6246 -1.6240 -0.6280
  183POPC   C1124405   0.424   0.209   1.459  0.7157  0.6822 -0.2167
  183POPC  H11A24406   0.445   0.196   1.351  0.2322  1.0320 -0.3584
  183POPC  H11B24407   0.313   0.205   1.457  0.7267 -1.0518  0.9861
  183POPC     P24408   0.401  -0.009   1.608  0.1743 -0.1718  0.3724
  183POPC   O1324409   0.470  -0.133   1.578 -0.4256 -0.2165 -0.1863
  183POPC   O1424410   0.260   0.005   1.568  0.4658 -0.2871 -0.6124
  183POPC   O1224411   0.479   0.104   1.534 -0.5061 -0.1239  0.5187
  183POPC   O1124412   0.426   0.029   1.754  0.3341 -0.1272  0.3352
  183POPC    C124413   0.552   0.039   1.821  0.2850 -0.4172 -0.1639
  183POPC    HA24414   0.621   0.074   1.742  0.3730  1.8287  0.8052
  183POPC    HB24415   0.581  -0.061   1.859 -2.8935 -1.4610 -0.1299
  183POPC    C224416   0.549   0.145   1.938 -0.3878  0.1235 -0.4533
  183POPC    HS24417   0.650   0.191   1.942 -0.2832 -0.1787  3.2814
  183POPC   O2124418   0.513   0.083   2.065 -0.3756  0.4992  0.0281
  183POPC   C2124419   0.613   0.018   2.125  0.0892 -0.2538  0.3613
  183POPC   O2224420   0.723  -0.005   2.074  0.4079  0.0568  0.6349
  183POPC   C2224421   0.577  -0.036   2.266 -0.0440 -0.0062  0.1537
  183POPC   H2R24422   0.487  -0.096   2.239  1.1055 -1.5412 -0.4585
  183POPC   H2S24423   0.572   0.059   2.322  2.8280 -0.2944  1.0893
  183POPC    C324424   0.444   0.261   1.916  0.2164 -0.0100 -0.1297
  183POPC    HX24425   0.343   0.223   1.941  0.6462 -2.7450 -2.0793
  183POPC    HY24426   0.436   0.272   1.806  0.4951  0.3680 -0.1153
  183POPC   O3124427   0.480   0.383   1.980  0.1499  0.1083  0.4017
  183POPC   C3124428   0.591   0.439   1.937  0.2236 -0.6392 -0.8607
  183POPC   O3224429   0.667   0.387   1.856 -0.6009 -0.3356  0.1873
  183POPC   C3224430   0.619   0.564   2.022  0.4841  0.6458 -0.1849
  183POPC   H2X24431   0.523   0.588   2.071 -0.2199 -1.7155 -0.2584
  183POPC   H2Y24432   0.637   0.653   1.959 -1.9925  1.8600  0.7179
  183POPC   C2324433   0.677  -0.134   2.338  0.0467 -0.0943  0.1007
  183POPC   H3R24434   0.780  -0.092   2.342 -0.1018  0.2216  0.7097
  183POPC   H3S24435   0.693  -0.228   2.280 -1.8614  0.6820 -1.8425
  183POPC   C2424436   0.652  -0.164   2.488  0.5791  0.1858  0.0506
  183POPC   H4R24437   0.684  -0.082   2.555  0.2181  1.2437 -1.0494
  183POPC   H4S24438   0.714  -0.252   2.515 -0.5464 -0.6781 -0.0894
  183POPC   C2524439   0.515  -0.201   2.518  0.2090 -0.5405  1.0222
  183POPC   H5R24440   0.493  -0.292   2.457  3.0967 -0.6660  0.0228
  183POPC   H5S24441   0.457  -0.108   2.500 -1.8186 -1.3486  2.9022
  183POPC   C2624442   0.494  -0.256   2.657  0.3756 -0.1788  0.4190
  183POPC   H6R24443   0.578  -0.322   2.686  0.9304 -0.3563 -1.4376
  183POPC   H6S24444   0.403  -0.320   2.665  0.1477  0.2857  1.6782
  183POPC   C2724445   0.481  -0.150   2.769 -0.5599  0.5075 -0.2259
  183POPC   H7R24446   0.389  -0.089   2.757 -0.1839  0.8495 -1.5377
  183POPC   H7S24447   0.572  -0.086   2.767  1.8607 -2.7159 -0.2325
  183POPC   C2824448   0.477  -0.220   2.907  0.2484 -0.3752  0.5738
  183POPC   H8R24449   0.564  -0.288   2.906  0.5099 -0.1116 -1.9139
  183POPC   H8S24450   0.388  -0.285   2.896  0.5280 -0.4853 -1.4808
  183POPC   C2924451   0.467  -0.121   3.015 -0.5618  0.4104  0.3969
  183POPC   H9124452   0.372  -0.067   3.027 -0.5249  0.5232  0.1912
  183POPC  C21024453   0.566  -0.088   3.107 -0.6212 -1.0562  0.7971
  183POPC  H10124454   0.552  -0.025   3.196  1.0761 -0.3622  0.6126
  183POPC  C21124455   0.710  -0.143   3.103 -0.5790  0.1517 -0.2406
  183POPC  H11R24456   0.772  -0.079   3.037 -0.2394 -1.0517 -1.1132
  183POPC  H11S24457   0.713  -0.244   3.056 -0.2889 -0.4356  1.0002
  183POPC  C21224458   0.804  -0.147   3.234 -0.3240  0.2684  0.1906
  183POPC  H12R24459   0.792  -0.050   3.287 -0.9204  0.9041 -1.0699
  183POPC  H12S24460   0.906  -0.163   3.193 -1.6045 -0.5037 -3.0071
  183POPC  C21324461   0.771  -0.272   3.329 -0.3725  0.1661 -0.1040
  183POPC  H13R24462   0.797  -0.364   3.272  0.8158 -0.4343  1.3369
  183POPC  H13S24463   0.663  -0.256   3.350 -0.5653 -0.9597 -0.1522
  183POPC  C21424464   0.864  -0.250   3.454 -0.2932 -0.4162 -0.5605
  183POPC  H14R24465   0.830  -0.151   3.491 -1.8164 -0.4937 -1.6358
  183POPC  H14S24466   0.973  -0.244   3.437 -0.3481 -2.0138 -1.7037
  183POPC  C21524467   0.839  -0.352   3.568 -0.1378 -0.0967  0.0410
  183POPC  H15R24468   0.731  -0.347   3.591  0.0037 -0.6231  0.8507
  183POPC  H15S24469   0.908  -0.334   3.653 -2.2563 -2.4907  2.4218
  183POPC  C21624470   0.871  -0.503   3.524  1.0057  0.1576  0.2272
  183POPC  H16R24471   0.977  -0.502   3.492  2.1857  0.8655  3.7699
  183POPC  H16S24472   0.807  -0.528   3.436  1.2011 -0.3608  0.2266
  183POPC  C21724473   0.870  -0.610   3.630 -0.3159 -0.2759  0.6130
  183POPC  H17R24474   0.935  -0.566   3.710 -1.6512  1.2493  0.9026
  183POPC  H17S24475   0.895  -0.709   3.587 -1.9132 -1.6386  2.5993
  183POPC  C21824476   0.736  -0.642   3.700 -0.4218  0.1256 -0.0520
  183POPC  H18R24477   0.651  -0.661   3.630  0.8945 -0.3770 -1.5685
  183POPC  H18S24478   0.705  -0.554   3.760 -1.5189 -0.6389  0.5501
  183POPC  H18T24479   0.750  -0.724   3.774 -1.5447 -0.0646 -0.0276
  183POPC   C3324480   0.745   0.548   2.121  0.0392 -0.2869  0.9541
  183POPC   H3X24481   0.749   0.642   2.180 -0.2422  1.4299 -1.6043
  183POPC   H3Y24482   0.830   0.544   2.049 -0.7560  0.3029 -0.0377
  183POPC   C3424483   0.746   0.432   2.219 -0.0296 -0.1574  0.4156
  183POPC   H4X24484   0.758   0.336   2.165  1.1206  1.0672 -1.6756
  183POPC   H4Y24485   0.649   0.430   2.272 -1.5810 -1.3286 -2.2779
  183POPC   C3524486   0.873   0.443   2.304 -0.3119 -0.1363 -0.2040
  183POPC   H5X24487   0.887   0.538   2.361  0.0549 -0.4941  0.3170
  183POPC   H5Y24488   0.954   0.442   2.228 -0.5683  2.5174 -0.6021
  183POPC   C3624489   0.893   0.329   2.408  0.8030 -0.5588  0.4721
  183POPC   H6X24490   0.875   0.226   2.369  0.1057  0.2620 -1.5065
  183POPC   H6Y24491   0.816   0.335   2.488  1.8165  2.9707  1.3411
  183POPC   C3724492   1.027   0.336   2.483 -0.2423 -0.7050  0.6568
  183POPC   H7X24493   1.034   0.441   2.520 -2.0936 -0.3328  0.0537
  183POPC   H7Y24494   1.110   0.324   2.411 -0.3855  0.9863  0.1806
  183POPC   C3824495   1.035   0.239   2.604  0.3350  0.4990 -0.2491
  183POPC   H8X24496   1.142   0.244   2.634 -0.0359  3.7194  1.0282
  183POPC   H8Y24497   1.015   0.137   2.565 -0.6746  0.7177 -0.3411
  183POPC   C3924498   0.949   0.264   2.730 -0.3228  0.5379 -0.1195
  183POPC   H9X24499   0.843   0.234   2.720  0.2322 -0.9352 -2.0332
  183POPC   H9Y24500   0.943   0.375   2.730 -0.2114  0.6450 -3.7160
  183POPC  C31024501   1.026   0.214   2.855  0.4910 -0.6368  0.1475
  183POPC  H10X24502   1.128   0.258   2.856  0.8977 -1.5335  1.3638
  183POPC  H10Y24503   1.044   0.104   2.863  0.0384 -0.7998 -0.9557
  183POPC  C31124504   0.944   0.263   2.985 -0.3819  0.2981 -0.7043
  183POPC  H11X24505   0.837   0.244   2.965  0.0336  0.0264 -3.0112
  183POPC  H11Y24506   0.951   0.373   2.981  2.6663  0.1740 -2.0120
  183POPC  C31224507   1.009   0.215   3.114 -0.1461  0.6300 -0.2053
  183POPC  H12X24508   1.108   0.266   3.123 -0.2665  0.7724  0.3828
  183POPC  H12Y24509   1.019   0.105   3.097  2.9714  1.0084 -1.4202
  183POPC  C31324510   0.928   0.237   3.238 -0.0554  0.9177 -0.9022
  183POPC  H13X24511   0.824   0.202   3.224 -0.3988  1.8406 -0.6908
  183POPC  H13Y24512   0.917   0.346   3.256  0.7321  1.4109 -3.0937
  183POPC  C31424513   0.994   0.168   3.361 -0.3627 -0.2558  0.2340
  183POPC  H14X24514   1.100   0.199   3.357 -0.4016 -0.1544  0.0302
  183POPC  H14Y24515   1.004   0.059   3.342 -0.3638  0.1732 -2.5110
  183POPC  C31524516   0.920   0.216   3.484 -0.0675  0.2150  0.5178
  183POPC  H15X24517   0.810   0.206   3.478 -0.0750  0.0398  0.9110
  183POPC  H15Y24518   0.946   0.324   3.488  0.0338  0.2283 -0.2589
  183POPC  C31624519   0.970   0.141   3.614 -0.1449 -0.1563  0.4167
  183POPC  H16X24520   1.079   0.156   3.623 -0.1797 -0.8176  2.3021
  183POPC  H16Y24521   0.957   0.030   3.621  0.3952 -0.2439  0.0846
  183POPC  H16Z24522   0.914   0.172   3.705 -2.0996  0.0808 -0.8029
  184POPC     N24523   7.092   6.865   2.023 -0.3733 -0.0062 -0.2230
  184POPC   C1224524   7.029   6.768   2.117  0.6959  0.0149  0.1882
  184POPC  H12A24525   7.083   6.758   2.210  0.0343 -0.9823  0.4881
  184POPC  H12B24526   7.033   6.666   2.082  0.7166 -0.1526  0.6666
  184POPC   C1324527   7.227   6.814   1.990  0.2944  0.3203 -0.7913
  184POPC  H13A24528   7.219   6.725   1.929 -0.1602  1.4241 -2.4050
  184POPC  H13B24529   7.271   6.884   1.920 -1.5505 -0.4328 -2.8383
  184POPC  H13C24530   7.282   6.799   2.081 -0.0291  0.5855 -0.5462
  184POPC   C1424531   7.019   6.879   1.896  0.6379  0.0718 -0.4582
  184POPC  H14A24532   7.040   6.795   1.832 -1.0294  0.0024 -0.9664
  184POPC  H14B24533   6.913   6.882   1.914  0.9354  0.5860  1.3633
  184POPC  H14C24534   7.050   6.969   1.844  3.3193 -0.1424  0.5945
  184POPC   C1524535   7.102   6.998   2.085 -0.3911  0.2033 -0.3734
  184POPC  H15A24536   7.002   7.036   2.100  0.1275  0.6229  2.4505
  184POPC  H15B24537   7.147   7.070   2.018  1.3893  0.6086  1.1824
  184POPC  H15C24538   7.145   6.992   2.184  0.9654  1.8445 -0.8206
  184POPC   C1124539   6.887   6.798   2.171  0.1504 -0.1889  0.2860
  184POPC  H11A24540   6.874   6.905   2.198  0.0451 -0.2749  0.5892
  184POPC  H11B24541   6.880   6.739   2.265 -0.5489 -0.3900  0.1156
  184POPC     P24542   6.638   6.791   2.087  0.1405  0.1501  0.0897
  184POPC   O1324543   6.549   6.679   2.047 -0.8884 -0.3388  0.5619
  184POPC   O1424544   6.621   6.914   2.002  0.7909  0.0870  0.0274
  184POPC   O1224545   6.791   6.741   2.078 -0.5326  0.1211  0.2890
  184POPC   O1124546   6.604   6.823   2.241 -0.3534 -0.0907 -0.1771
  184POPC    C124547   6.583   6.960   2.286 -0.0685  0.0247 -0.1058
  184POPC    HA24548   6.487   6.956   2.342 -0.9893  0.3317 -1.5965
  184POPC    HB24549   6.568   7.035   2.205 -2.6550 -0.7647 -0.4616
  184POPC    C224550   6.692   7.018   2.381 -0.0216  0.2877  0.0638
  184POPC    HS24551   6.785   7.029   2.321 -0.1620 -1.0848 -0.4458
  184POPC   O2124552   6.702   6.915   2.485 -0.0381  0.0167 -0.4635
  184POPC   C2124553   6.819   6.919   2.550 -0.5193 -0.1727 -0.4639
  184POPC   O2224554   6.918   6.985   2.522  0.4288 -0.5474  0.0660
  184POPC   C2224555   6.829   6.799   2.642  0.7055 -0.2266  0.2329
  184POPC   H2R24556   6.916   6.737   2.612  1.3426  0.5205  0.4972
  184POPC   H2S24557   6.732   6.744   2.640 -1.1564  2.7654 -2.1847
  184POPC    C324558   6.643   7.159   2.439  0.1751  0.6755 -0.2947
  184POPC    HX24559   6.556   7.142   2.506  1.0761  0.3330  0.8152
  184POPC    HY24560   6.618   7.221   2.350 -1.9928  0.7566  0.3222
  184POPC   O3124561   6.747   7.229   2.510 -0.3519 -0.1714 -0.3313
  184POPC   C3124562   6.745   7.359   2.516  0.3718  0.0741 -0.0860
  184POPC   O3224563   6.658   7.428   2.467  0.1097 -0.6678  0.2013
  184POPC   C3224564   6.862   7.417   2.583  0.1392 -0.0944 -0.2410
  184POPC   H2X24565   6.945   7.415   2.509  0.3455  2.0218 -0.1324
  184POPC   H2Y24566   6.893   7.347   2.664  0.0209 -0.2214 -0.3052
  184POPC   C2324567   6.857   6.839   2.789 -0.7515  1.2595  1.1311
  184POPC   H3R24568   6.901   6.941   2.787  0.9522  0.5435 -0.2119
  184POPC   H3S24569   6.938   6.775   2.829  0.3312  0.6895 -1.7146
  184POPC   C2424570   6.735   6.834   2.874  0.5849 -0.0249  0.2165
  184POPC   H4R24571   6.684   6.736   2.863  0.7678  0.0891 -2.0389
  184POPC   H4S24572   6.665   6.908   2.830 -0.1112 -0.9285 -0.2347
  184POPC   C2524573   6.751   6.897   3.020  0.3212  1.0398 -0.8016
  184POPC   H5R24574   6.805   6.994   3.030  1.7751  0.1164  0.9356
  184POPC   H5S24575   6.828   6.830   3.064 -0.0079  0.1757 -1.5298
  184POPC   C2624576   6.626   6.896   3.096  0.1116 -0.6214  0.2801
  184POPC   H6R24577   6.541   6.945   3.043 -1.4549 -2.3755  1.0611
  184POPC   H6S24578   6.645   6.938   3.197  1.6811 -2.3412  0.7465
  184POPC   C2724579   6.578   6.751   3.133  0.0066 -0.2508 -1.1163
  184POPC   H7R24580   6.660   6.708   3.195  0.5536  3.7559  1.2801
  184POPC   H7S24581   6.573   6.702   3.033 -3.2362 -1.0151 -0.6813
  184POPC   C2824582   6.443   6.758   3.206  0.1786  0.1364 -0.5206
  184POPC   H8R24583   6.376   6.805   3.132 -0.1119  0.5832  0.0205
  184POPC   H8S24584   6.455   6.830   3.290  2.3827 -1.8739  1.0603
  184POPC   C2924585   6.398   6.621   3.255  0.0384  0.4176  0.0466
  184POPC   H9124586   6.360   6.552   3.178 -6.1408  1.5832  1.5108
  184POPC  C21024587   6.374   6.570   3.378  0.3462  0.6356 -0.2896
  184POPC  H10124588   6.341   6.470   3.410  0.0342  1.3300  1.6890
  184POPC  C21124589   6.397   6.648   3.504 -0.2111 -0.7983 -0.1910
  184POPC  H11R24590   6.322   6.613   3.579  0.6489 -0.1570  1.0070
  184POPC  H11S24591   6.389   6.759   3.501  1.5866 -0.5950  1.0957
  184POPC  C21224592   6.534   6.614   3.553 -0.9098  0.1670 -0.5111
  184POPC  H12R24593   6.606   6.658   3.481 -0.5607 -1.4506 -1.1839
  184POPC  H12S24594   6.549   6.505   3.564 -1.2136  0.0671 -1.0421
  184POPC  C21324595   6.568   6.670   3.684 -0.1837 -0.2945 -0.2239
  184POPC  H13R24596   6.664   6.628   3.721 -0.9472 -2.2502 -0.3710
  184POPC  H13S24597   6.484   6.659   3.756 -1.8159  1.9012 -1.6551
  184POPC  C21424598   6.584   6.824   3.699  0.0110 -0.0380 -0.0563
  184POPC  H14R24599   6.607   6.847   3.806  1.6101 -1.1735 -0.1240
  184POPC  H14S24600   6.487   6.870   3.672 -0.8598 -1.6061  0.2924
  184POPC  C21524601   6.693   6.895   3.617 -0.1356 -1.2620  0.5739
  184POPC  H15R24602   6.778   6.824   3.615  0.3619 -0.6585 -0.2615
  184POPC  H15S24603   6.712   6.990   3.671 -0.3960 -1.3516  0.8250
  184POPC  C21624604   6.651   6.937   3.472 -0.4095  0.5968 -0.4344
  184POPC  H16R24605   6.541   6.948   3.459 -0.1899  2.6560 -0.8792
  184POPC  H16S24606   6.672   6.862   3.392  2.5120  1.4860 -0.6266
  184POPC  C21724607   6.735   7.059   3.426 -0.3705  0.6573 -0.3995
  184POPC  H17R24608   6.708   7.143   3.493 -3.3921 -2.0604  2.1570
  184POPC  H17S24609   6.713   7.096   3.324 -4.0636  1.5222  0.5781
  184POPC  C21824610   6.887   7.037   3.434 -0.7080  0.6812  0.3740
  184POPC  H18R24611   6.917   6.948   3.375  0.4500  2.9043 -2.6423
  184POPC  H18S24612   6.920   7.033   3.540  0.8740  0.0646 -0.1077
  184POPC  H18T24613   6.949   7.115   3.384  0.3823  0.7762  1.8191
  184POPC   C3324614   6.843   7.555   2.655 -0.8448  0.1655  0.4794
  184POPC   H3X24615   6.844   7.634   2.576 -0.7143 -0.0187  0.2989
  184POPC   H3Y24616   6.937   7.568   2.712 -0.7325  2.0297 -0.0365
  184POPC   C3424617   6.727   7.560   2.750  0.1552  0.2315 -0.4334
  184POPC   H4X24618   6.718   7.461   2.800  0.1108  1.0733  1.2995
  184POPC   H4Y24619   6.631   7.561   2.693  0.0669 -0.5353 -0.3077
  184POPC   C3524620   6.729   7.662   2.864  0.1758  0.4598  0.1067
  184POPC   H5X24621   6.710   7.762   2.820 -2.7380 -0.0481  0.0193
  184POPC   H5Y24622   6.828   7.656   2.914  2.0249 -0.0114 -3.3196
  184POPC   C3624623   6.605   7.631   2.948 -0.1721  0.3482 -0.4396
  184POPC   H6X24624   6.623   7.530   2.992 -0.9242 -0.0685 -1.0677
  184POPC   H6Y24625   6.511   7.626   2.889 -1.2535 -1.4495  1.2994
  184POPC   C3724626   6.587   7.713   3.076 -0.6080 -0.2662  0.2102
  184POPC   H7X24627   6.605   7.818   3.047 -0.5678 -1.0412 -2.9873
  184POPC   H7Y24628   6.657   7.689   3.159 -0.3086 -1.1168 -0.2609
  184POPC   C3824629   6.451   7.688   3.145 -0.6579 -0.1339 -0.8014
  184POPC   H8X24630   6.449   7.590   3.198  1.3967 -0.8837 -1.9843
  184POPC   H8Y24631   6.376   7.678   3.064 -0.0576  0.9000 -1.5085
  184POPC   C3924632   6.411   7.801   3.239 -0.3626 -0.1853 -0.7405
  184POPC   H9X24633   6.301   7.791   3.247 -0.2503 -0.1898  1.4261
  184POPC   H9Y24634   6.440   7.901   3.200  0.8212  0.1349  0.8753
  184POPC  C31024635   6.460   7.784   3.383  0.2819  0.0406  0.2162
  184POPC  H10X24636   6.570   7.773   3.392  0.4659 -0.0913 -1.7874
  184POPC  H10Y24637   6.401   7.698   3.420  0.5793 -0.1054  0.3584
  184POPC  C31124638   6.418   7.897   3.474  0.8309 -0.5721 -0.3155
  184POPC  H11X24639   6.308   7.900   3.491  1.1001 -1.1018  1.9173
  184POPC  H11Y24640   6.454   7.990   3.426 -0.5907 -0.2266 -0.7625
  184POPC  C31224641   6.479   7.874   3.618  0.5372 -0.6912 -0.2879
  184POPC  H12X24642   6.590   7.878   3.613  0.5068 -1.0758 -1.8497
  184POPC  H12Y24643   6.459   7.771   3.652 -1.2520 -0.9204 -1.8815
  184POPC  C31324644   6.436   7.979   3.710 -0.1920 -0.1802 -0.0260
  184POPC  H13X24645   6.490   7.972   3.807 -2.2248 -1.9836  1.0611
  184POPC  H13Y24646   6.333   7.960   3.747  0.4420 -0.8592  1.4884
  184POPC  C31424647   6.451   8.125   3.651 -0.5769  0.1279  0.1669
  184POPC  H14X24648   6.356   8.143   3.595  0.2331 -0.2760 -1.3782
  184POPC  H14Y24649   6.526   8.151   3.574 -2.2585  1.0217 -1.2654
  184POPC  C31524650   6.463   8.221   3.761  0.0204 -0.3819 -0.3817
  184POPC  H15X24651   6.369   8.222   3.820  1.0641  0.2562  1.3585
  184POPC  H15Y24652   6.459   8.326   3.724  1.4913 -0.1817 -0.0389
  184POPC  C31624653   6.591   8.207   3.847  0.3557 -0.4159  0.5781
  184POPC  H16X24654   6.605   8.123   3.919  3.3075  2.3547  3.5648
  184POPC  H16Y24655   6.580   8.292   3.918 -0.4564  1.1208 -1.3017
  184POPC  H16Z24656   6.681   8.229   3.786 -1.0055  1.5298 -0.8592
  185POPC     N24657   0.773   2.669   2.329 -0.0249 -0.0069 -0.4179
  185POPC   C1224658   0.735   2.787   2.404  0.2469 -1.1618  0.0138
  185POPC  H12A24659   0.644   2.766   2.459 -0.3182 -0.0723 -0.4802
  185POPC  H12B24660   0.700   2.862   2.335 -0.9060 -2.3546 -0.7503
  185POPC   C1324661   0.782   2.556   2.432 -0.0322 -0.1882 -0.1108
  185POPC  H13A24662   0.683   2.532   2.468  0.7093 -0.9471  1.5068
  185POPC  H13B24663   0.816   2.463   2.387 -2.4799 -0.4176 -1.6846
  185POPC  H13C24664   0.842   2.583   2.517  0.5451  1.9120 -1.1096
  185POPC   C1424665   0.659   2.635   2.232  0.0575 -0.0384 -0.4435
  185POPC  H14A24666   0.564   2.631   2.282  0.3594  1.9153  0.3790
  185POPC  H14B24667   0.654   2.710   2.154 -1.2304  0.0997 -0.2508
  185POPC  H14C24668   0.678   2.542   2.181  1.3929 -0.0598  0.0631
  185POPC   C1524669   0.902   2.684   2.247 -0.4017  0.2622  0.3029
  185POPC  H15A24670   0.988   2.665   2.309 -1.5013 -1.4317  1.3786
  185POPC  H15B24671   0.906   2.785   2.207  2.0305  0.0958 -0.0166
  185POPC  H15C24672   0.906   2.615   2.164  0.8686 -0.4122  0.9032
  185POPC   C1124673   0.839   2.851   2.500  0.0063 -0.7069  0.4517
  185POPC  H11A24674   0.871   2.781   2.580 -1.3956  0.0610  1.7419
  185POPC  H11B24675   0.790   2.942   2.542  1.2573  0.1660  0.0847
  185POPC     P24676   0.945   3.022   2.321 -0.1116 -0.3557  0.0344
  185POPC   O1324677   0.847   3.006   2.213 -0.5367 -0.1406 -0.0776
  185POPC   O1424678   1.085   3.067   2.286  0.9709 -0.1894 -0.1154
  185POPC   O1224679   0.953   2.893   2.422 -0.3385  0.5389 -0.4960
  185POPC   O1124680   0.886   3.139   2.418 -0.1923  0.0018 -0.4727
  185POPC    C124681   0.975   3.222   2.500  0.1504  0.5583  0.2104
  185POPC    HA24682   0.922   3.295   2.564  2.2191  2.1799  0.1731
  185POPC    HB24683   1.036   3.279   2.425 -0.1531 -0.3994 -0.7980
  185POPC    C224684   1.073   3.148   2.601 -0.5600 -0.2212 -0.6608
  185POPC    HS24685   1.124   3.065   2.547 -2.6378 -0.2503 -2.7640
  185POPC   O2124686   0.982   3.092   2.700  0.4280  0.1743  0.4509
  185POPC   C2124687   1.017   2.980   2.762 -0.1509  0.1311 -0.0910
  185POPC   O2224688   1.117   2.913   2.745 -0.0580  0.4765  0.3816
  185POPC   C2224689   0.908   2.945   2.876 -0.2157 -0.1649 -0.6331
  185POPC   H2R24690   0.928   2.838   2.900 -1.1582 -0.5217 -1.3880
  185POPC   H2S24691   0.807   2.964   2.832 -0.8626  0.3939  1.0341
  185POPC    C324692   1.177   3.248   2.656  0.2699  0.1098 -0.3204
  185POPC    HX24693   1.132   3.348   2.676  0.1437  0.4014 -1.9242
  185POPC    HY24694   1.251   3.257   2.574  0.0536 -2.4999 -0.9100
  185POPC   O3124695   1.244   3.196   2.779  0.1823 -0.9006 -0.4178
  185POPC   C3124696   1.370   3.165   2.773  0.7737  0.4756 -0.2648
  185POPC   O3224697   1.442   3.173   2.672  0.3363  0.4680 -0.0261
  185POPC   C3224698   1.425   3.138   2.915  0.3765 -0.5120  0.3583
  185POPC   H2X24699   1.398   3.034   2.944  0.5509 -0.1764  1.8192
  185POPC   H2Y24700   1.374   3.210   2.983  0.2706  1.6885 -1.9220
  185POPC   C2324701   0.909   3.020   3.010  0.0069  0.1070 -0.8815
  185POPC   H3R24702   0.834   2.974   3.077 -1.1739 -0.4123 -2.5134
  185POPC   H3S24703   0.870   3.124   3.000 -2.5431 -0.8107 -1.1333
  185POPC   C2424704   1.042   3.024   3.077  0.3431  0.1656  0.4659
  185POPC   H4R24705   1.040   3.095   3.162 -0.7651  0.6081  0.0884
  185POPC   H4S24706   1.114   3.066   3.004 -1.0104 -1.9951 -2.2980
  185POPC   C2524707   1.102   2.897   3.130 -1.0005 -0.3454 -0.7185
  185POPC   H5R24708   1.208   2.912   3.159 -1.5566 -0.9831  1.9095
  185POPC   H5S24709   1.090   2.810   3.063  1.5723 -2.5414  1.4555
  185POPC   C2624710   1.023   2.840   3.248  0.6051  0.7476  0.7532
  185POPC   H6R24711   0.922   2.825   3.204  1.9942 -1.6293 -1.9502
  185POPC   H6S24712   1.022   2.910   3.334  0.5640 -0.4965  1.7969
  185POPC   C2724713   1.065   2.694   3.285  0.1220  0.2996 -0.0500
  185POPC   H7R24714   1.064   2.640   3.188 -0.8676  0.8547 -0.3644
  185POPC   H7S24715   0.980   2.654   3.345  1.5443 -1.9350  0.6170
  185POPC   C2824716   1.197   2.685   3.356  0.7244  0.2415  0.2873
  185POPC   H8R24717   1.193   2.596   3.422  1.5748 -1.3581 -1.7016
  185POPC   H8S24718   1.211   2.780   3.411  0.4880  1.2189 -1.2824
  185POPC   C2924719   1.309   2.659   3.256 -0.5152  0.1298 -0.2744
  185POPC   H9124720   1.366   2.752   3.238  0.4267 -0.1876  0.9433
  185POPC  C21024721   1.357   2.542   3.201 -0.2150  0.0462  0.3293
  185POPC  H10124722   1.453   2.540   3.148  0.9000  0.9208  2.2362
  185POPC  C21124723   1.298   2.403   3.215 -0.2876  0.1244 -0.8137
  185POPC  H11R24724   1.229   2.383   3.131 -2.0021 -2.2151  1.0289
  185POPC  H11S24725   1.238   2.390   3.308 -0.6434  0.6916 -0.9594
  185POPC  C21224726   1.405   2.287   3.223 -0.4303  0.2806 -0.0559
  185POPC  H12R24727   1.348   2.192   3.238  2.6016 -1.8050 -0.8053
  185POPC  H12S24728   1.477   2.289   3.307  0.2198 -1.2309 -0.5341
  185POPC  C21324729   1.500   2.261   3.106  0.4622  0.3490  0.0408
  185POPC  H13R24730   1.576   2.186   3.139  0.6859  0.2613 -0.6601
  185POPC  H13S24731   1.549   2.358   3.085  1.6588 -0.3070 -0.2988
  185POPC  C21424732   1.443   2.194   2.989  0.2737  0.0399  0.2202
  185POPC  H14R24733   1.519   2.208   2.909  0.6407  1.7213  0.8219
  185POPC  H14S24734   1.352   2.249   2.957 -1.8215 -2.7441  1.0742
  185POPC  C21524735   1.416   2.048   2.994 -0.6229  0.0606 -0.0383
  185POPC  H15R24736   1.364   2.027   3.089  2.6970 -1.5588  1.6011
  185POPC  H15S24737   1.515   1.998   3.003  0.1214  1.6452  1.1051
  185POPC  C21624738   1.327   1.996   2.874 -0.3245 -0.3008 -0.3338
  185POPC  H16R24739   1.234   2.056   2.886 -1.0022 -1.4483  0.2339
  185POPC  H16S24740   1.294   1.892   2.894  0.5377 -0.5299 -0.0779
  185POPC  C21724741   1.389   2.028   2.740 -0.4080 -0.0620  0.2167
  185POPC  H17R24742   1.485   1.971   2.734  0.4811  1.3112  0.9405
  185POPC  H17S24743   1.406   2.138   2.738 -1.5446  0.1355 -2.0558
  185POPC  C21824744   1.297   1.992   2.618  0.0239 -0.4112 -0.0698
  185POPC  H18R24745   1.203   2.052   2.621  0.2647  0.1342 -1.9642
  185POPC  H18S24746   1.260   1.887   2.622 -1.0408 -0.0367  0.3100
  185POPC  H18T24747   1.347   2.015   2.522  1.6545 -0.6415  0.6973
  185POPC   C3324748   1.576   3.133   2.943 -0.7900 -0.4498 -0.3242
  185POPC   H3X24749   1.629   3.213   2.887 -2.5885  1.1590  0.1826
  185POPC   H3Y24750   1.620   3.048   2.887  0.4128  0.7975 -1.3491
  185POPC   C3424751   1.625   3.131   3.091  0.2384  0.4846 -0.0448
  185POPC   H4X24752   1.589   3.218   3.151 -0.1796  0.7193 -0.6267
  185POPC   H4Y24753   1.735   3.137   3.088  0.2295  1.9399  1.2900
  185POPC   C3524754   1.594   2.999   3.171  0.2400 -0.2724 -0.5806
  185POPC   H5X24755   1.630   2.915   3.107  1.6523 -0.6334  0.6495
  185POPC   H5Y24756   1.484   2.982   3.173  0.1072  0.4464 -1.1785
  185POPC   C3624757   1.654   2.993   3.317  0.5637 -0.1549  0.0199
  185POPC   H6X24758   1.628   3.092   3.362 -0.2329 -0.1012 -0.5454
  185POPC   H6Y24759   1.765   2.988   3.310  0.5037 -1.0310 -0.3224
  185POPC   C3724760   1.593   2.892   3.418  0.1459  0.3014 -0.0269
  185POPC   H7X24761   1.642   2.792   3.417 -0.5325 -0.0422  0.3471
  185POPC   H7Y24762   1.482   2.891   3.404 -0.0732 -2.9548  1.0192
  185POPC   C3824763   1.614   2.941   3.559  0.7022 -0.7778  0.0772
  185POPC   H8X24764   1.600   3.051   3.551 -0.3605 -0.7439  1.9662
  185POPC   H8Y24765   1.721   2.929   3.588  1.3428  2.0918 -0.7399
  185POPC   C3924766   1.519   2.881   3.664 -0.3336 -0.0333  1.1324
  185POPC   H9X24767   1.527   2.771   3.658 -2.5146 -0.3208  2.3199
  185POPC   H9Y24768   1.423   2.921   3.624  0.4926 -0.1185 -1.0289
  185POPC  C31024769   1.571   2.912   3.803 -0.5535 -0.1762 -0.5260
  185POPC  H10X24770   1.577   3.022   3.820 -0.9016 -0.3807  1.0354
  185POPC  H10Y24771   1.673   2.869   3.809 -1.0814 -1.5640 -0.9394
  185POPC  C31124772   1.478   2.859   3.908 -0.3197  0.1801 -0.0001
  185POPC  H11X24773   1.504   2.754   3.931 -1.3254 -0.2203 -0.6093
  185POPC  H11Y24774   1.379   2.855   3.857  0.6589  0.4877 -2.0046
  185POPC  C31224775   1.478   2.938   4.040  0.4183  0.3686  1.0228
  185POPC  H12X24776   1.448   3.043   4.025  1.2751  0.5495  0.4540
  185POPC  H12Y24777   1.584   2.932   4.073  0.9618 -1.5552 -0.7994
  185POPC  C31324778   1.382   2.872   4.141 -0.0169  0.0710  0.0466
  185POPC  H13X24779   1.394   2.764   4.117 -0.7067  0.0467 -0.1992
  185POPC  H13Y24780   1.283   2.909   4.108  0.6805 -0.2064 -2.6070
  185POPC  C31424781   1.390   2.910   4.295 -0.1161 -0.2266  0.4284
  185POPC  H14X24782   1.493   2.887   4.331 -0.7909 -0.5899  2.2279
  185POPC  H14Y24783   1.315   2.844   4.344 -0.6790  1.1494  1.4733
  185POPC  C31524784   1.324   3.047   4.329  0.1601  0.1041  0.7185
  185POPC  H15X24785   1.218   3.062   4.298  0.5055  1.4934  0.1470
  185POPC  H15Y24786   1.379   3.125   4.273 -1.3541  1.5959  1.2278
  185POPC  C31624787   1.323   3.087   4.473  0.0075  0.8232  0.4097
  185POPC  H16X24788   1.284   3.191   4.475 -1.4697  0.2979  0.5225
  185POPC  H16Y24789   1.423   3.091   4.522 -0.6677  1.3387  1.8087
  185POPC  H16Z24790   1.259   3.015   4.529 -0.3527  1.5467  0.9574
  186POPC     N24791   2.174   5.825   1.948 -0.0170 -0.2191  0.0348
  186POPC   C1224792   2.092   5.944   1.997 -0.1725  0.3669 -0.3002
  186POPC  H12A24793   2.036   5.906   2.081 -0.1139 -0.9898 -0.8378
  186POPC  H12B24794   2.010   5.968   1.931  0.9931 -0.0209 -1.9468
  186POPC   C1324795   2.295   5.797   2.029  0.3598  0.4031  0.0436
  186POPC  H13A24796   2.267   5.778   2.131  0.1586 -0.6541 -0.2030
  186POPC  H13B24797   2.332   5.699   2.005  1.4279  0.6477  0.6037
  186POPC  H13C24798   2.374   5.872   2.028 -0.4671  1.3064  0.5209
  186POPC   C1424799   2.091   5.694   1.951 -0.4026 -0.7178 -0.4718
  186POPC  H14A24800   2.141   5.614   1.898 -0.6592  0.2305 -2.2396
  186POPC  H14B24801   2.097   5.652   2.050  0.0047  0.7028  0.1204
  186POPC  H14C24802   1.994   5.696   1.903 -0.6401 -0.1951  0.0234
  186POPC   C1524803   2.226   5.842   1.805 -0.3334 -0.7048 -0.0332
  186POPC  H15A24804   2.269   5.940   1.789 -1.8581 -0.0427 -0.2574
  186POPC  H15B24805   2.156   5.824   1.725  0.4001 -0.6456 -0.7100
  186POPC  H15C24806   2.304   5.768   1.791 -0.6772 -1.3229  1.2149
  186POPC   C1124807   2.169   6.080   2.034  0.4650  1.1824 -0.2924
  186POPC  H11A24808   2.237   6.062   2.120 -1.4526 -1.0737  0.8544
  186POPC  H11B24809   2.096   6.153   2.075 -0.9273 -0.1682 -0.2897
  186POPC     P24810   2.208   6.246   1.841 -0.1305 -0.2549  0.1312
  186POPC   O1324811   2.077   6.210   1.778  0.8615  0.0492 -0.2474
  186POPC   O1424812   2.320   6.277   1.753 -0.1630 -0.1841 -0.6365
  186POPC   O1224813   2.254   6.129   1.932  0.1915  0.4782 -0.1655
  186POPC   O1124814   2.187   6.363   1.949 -0.0153 -0.2859  0.6386
  186POPC    C124815   2.303   6.415   2.019 -0.0662 -0.3275  0.2444
  186POPC    HA24816   2.321   6.523   2.002  2.6592 -0.9259 -1.3562
  186POPC    HB24817   2.396   6.369   1.980  0.8600  1.1031  0.6976
  186POPC    C224818   2.305   6.394   2.175  0.1732  0.8196 -0.3266
  186POPC    HS24819   2.330   6.287   2.184 -0.1721  0.8434  1.2798
  186POPC   O2124820   2.178   6.427   2.229  0.0966  0.2170 -0.4326
  186POPC   C2124821   2.141   6.367   2.340  0.5216 -0.3170 -0.3791
  186POPC   O2224822   2.201   6.282   2.398 -0.1503  0.1809 -0.3595
  186POPC   C2224823   2.009   6.426   2.391  0.2899 -0.2900  0.1393
  186POPC   H2R24824   1.934   6.349   2.362 -0.9114  0.5977  0.7808
  186POPC   H2S24825   1.976   6.516   2.334 -1.8801  1.3953  3.6538
  186POPC    C324826   2.415   6.475   2.252  0.2365 -0.2355  0.8482
  186POPC    HX24827   2.379   6.581   2.256 -0.2434 -0.3500 -0.0956
  186POPC    HY24828   2.503   6.481   2.185  0.9143  0.7351  1.7916
  186POPC   O3124829   2.433   6.440   2.388  0.2440 -0.1741 -0.2382
  186POPC   C3124830   2.517   6.337   2.403  0.2718 -0.7771 -0.2088
  186POPC   O3224831   2.578   6.284   2.313  0.4251  0.1489 -0.5936
  186POPC   C3224832   2.511   6.295   2.548  0.1195  0.2874 -0.5929
  186POPC   H2X24833   2.421   6.231   2.540  0.7121 -0.3645 -3.0748
  186POPC   H2Y24834   2.497   6.381   2.617  1.5395 -1.7098  2.4002
  186POPC   C2324835   2.002   6.467   2.531 -0.2627  0.4384 -0.8036
  186POPC   H3R24836   2.053   6.397   2.600 -4.2999 -2.4255 -0.3785
  186POPC   H3S24837   1.893   6.465   2.553 -0.9113  2.0796 -3.4541
  186POPC   C2424838   2.071   6.600   2.571 -0.4718  0.1258  0.0289
  186POPC   H4R24839   2.012   6.679   2.520 -0.8094  0.7271  1.3259
  186POPC   H4S24840   2.173   6.610   2.529 -1.5099  0.4162 -2.6141
  186POPC   C2524841   2.044   6.620   2.720  0.1906 -0.0965 -0.6075
  186POPC   H5R24842   2.078   6.532   2.778 -1.4811  0.7105  1.7499
  186POPC   H5S24843   1.933   6.615   2.722  0.1764  0.3237  0.5649
  186POPC   C2624844   2.100   6.746   2.777  1.1574  0.1472  0.8315
  186POPC   H6R24845   2.075   6.834   2.713  1.8532 -0.4579 -0.3013
  186POPC   H6S24846   2.211   6.749   2.774  1.2150 -1.5207  0.6972
  186POPC   C2724847   2.058   6.770   2.920 -0.0902 -0.0371  0.0223
  186POPC   H7R24848   2.110   6.859   2.961  0.7946 -1.7463  2.9089
  186POPC   H7S24849   2.087   6.678   2.977  0.9635 -0.7028 -1.5176
  186POPC   C2824850   1.914   6.801   2.938  0.8390 -0.0005  0.3477
  186POPC   H8R24851   1.854   6.721   2.889  0.0132  0.1826  1.0293
  186POPC   H8S24852   1.899   6.897   2.885  0.0632  0.9319  2.1819
  186POPC   C2924853   1.862   6.822   3.073  0.3912 -0.1806  0.3512
  186POPC   H9124854   1.873   6.928   3.098 -2.0543  0.2605 -0.1875
  186POPC  C21024855   1.796   6.730   3.142  0.3735  0.9815 -0.6796
  186POPC  H10124856   1.752   6.759   3.239 -0.8315 -0.8908 -0.6093
  186POPC  C21124857   1.758   6.593   3.098  0.7006  0.3280  0.5145
  186POPC  H11R24858   1.854   6.537   3.100 -0.0597 -1.0630 -0.6239
  186POPC  H11S24859   1.720   6.594   2.994  0.1494 -0.0475  0.7048
  186POPC  C21224860   1.644   6.526   3.181  0.0066  0.2748 -0.6901
  186POPC  H12R24861   1.548   6.578   3.159 -1.3821 -0.5282  2.8627
  186POPC  H12S24862   1.672   6.538   3.287  2.0082 -0.6002 -1.0771
  186POPC  C21324863   1.620   6.376   3.150  0.1933  0.4497 -0.1313
  186POPC  H13R24864   1.574   6.368   3.049  0.5675  0.4763 -0.3049
  186POPC  H13S24865   1.560   6.326   3.229  0.6330 -1.0316 -0.7080
  186POPC  C21424866   1.747   6.284   3.145  0.0505  0.1196 -0.1996
  186POPC  H14R24867   1.818   6.298   3.229  0.4399  0.0439 -0.5073
  186POPC  H14S24868   1.804   6.327   3.059  0.0015  3.1950  1.1584
  186POPC  C21524869   1.699   6.137   3.148 -0.0997  0.2526  0.0084
  186POPC  H15R24870   1.790   6.089   3.107  1.6429  2.8515  0.5477
  186POPC  H15S24871   1.605   6.130   3.089  0.6593  0.0264 -1.1886
  186POPC  C21624872   1.673   6.072   3.280  0.0400  0.3207 -0.5120
  186POPC  H16R24873   1.581   6.116   3.327 -0.0655 -0.4915  0.0665
  186POPC  H16S24874   1.760   6.094   3.346  0.8806 -2.9089 -0.3766
  186POPC  C21724875   1.655   5.917   3.275  0.4247  0.2288 -0.5727
  186POPC  H17R24876   1.747   5.874   3.231  1.2974  1.3142  0.1353
  186POPC  H17S24877   1.574   5.896   3.202 -1.3044  0.9875  1.0377
  186POPC  C21824878   1.610   5.852   3.407  0.3352 -0.1700 -0.4783
  186POPC  H18R24879   1.512   5.893   3.441  0.7287 -2.8289  5.0017
  186POPC  H18S24880   1.679   5.886   3.488 -1.9060  1.3013  0.9444
  186POPC  H18T24881   1.621   5.742   3.396  0.0338 -0.2623  0.1129
  186POPC   C3324882   2.630   6.212   2.586 -0.0619 -0.7577  0.1488
  186POPC   H3X24883   2.717   6.280   2.579 -1.3736  0.8496 -2.4688
  186POPC   H3Y24884   2.646   6.134   2.508  2.8294  0.0861 -0.2180
  186POPC   C3424885   2.602   6.161   2.726  0.0862 -0.1919  0.0394
  186POPC   H4X24886   2.529   6.077   2.718  0.2867 -0.2866 -1.0086
  186POPC   H4Y24887   2.561   6.242   2.790  1.1902 -0.9505  1.7639
  186POPC   C3524888   2.723   6.108   2.810 -0.1036  0.5539  0.8922
  186POPC   H5X24889   2.796   6.190   2.828  3.5586 -2.5584  1.5285
  186POPC   H5Y24890   2.774   6.025   2.757 -0.3975  1.3086 -0.6226
  186POPC   C3624891   2.684   6.069   2.954  0.4951  0.0544  0.1158
  186POPC   H6X24892   2.777   6.017   2.985  0.1073 -0.3413  0.6406
  186POPC   H6Y24893   2.605   5.990   2.951  1.1870 -0.6313 -0.7753
  186POPC   C3724894   2.640   6.189   3.046  0.2260 -0.1213  0.5566
  186POPC   H7X24895   2.535   6.219   3.025 -1.1375 -2.9250  2.6028
  186POPC   H7Y24896   2.710   6.271   3.023 -3.1305  2.3742 -1.5978
  186POPC   C3824897   2.640   6.154   3.196  0.0422  0.4522  0.2923
  186POPC   H8X24898   2.745   6.124   3.215  0.8154  3.3253  0.9715
  186POPC   H8Y24899   2.571   6.069   3.215  2.9600 -2.5585 -1.4744
  186POPC   C3924900   2.628   6.274   3.297  0.5726 -0.1510 -0.1397
  186POPC   H9X24901   2.523   6.306   3.278  0.6059 -0.7009 -1.3399
  186POPC   H9Y24902   2.705   6.342   3.254  0.6250  1.1189  1.8105
  186POPC  C31024903   2.637   6.234   3.444  0.0259  0.6238  0.3676
  186POPC  H10X24904   2.735   6.185   3.455  0.1248  0.8872  0.6828
  186POPC  H10Y24905   2.554   6.168   3.476  1.4859  0.3061  3.9290
  186POPC  C31124906   2.645   6.357   3.537 -0.7409 -0.0530 -0.2249
  186POPC  H11X24907   2.713   6.434   3.494 -2.1623  0.5453 -1.4864
  186POPC  H11Y24908   2.683   6.313   3.632  0.9984 -1.6282 -1.5687
  186POPC  C31224909   2.510   6.420   3.564 -0.6792  0.2115 -0.0743
  186POPC  H12X24910   2.473   6.349   3.642  2.0425 -2.1929 -0.7673
  186POPC  H12Y24911   2.446   6.421   3.473 -2.6483  0.0443  1.2359
  186POPC  C31324912   2.510   6.558   3.642  0.5846  0.1892  0.1967
  186POPC  H13X24913   2.402   6.581   3.657 -0.5767 -2.9195 -2.2106
  186POPC  H13Y24914   2.541   6.647   3.585 -1.5334  0.4595 -0.6350
  186POPC  C31424915   2.591   6.546   3.769 -0.2080  0.4659 -0.1092
  186POPC  H14X24916   2.698   6.524   3.745 -0.8567 -2.1655 -1.0202
  186POPC  H14Y24917   2.559   6.453   3.820 -1.6664  0.1048 -1.6095
  186POPC  C31524918   2.585   6.670   3.863 -0.0553 -0.6632  0.4629
  186POPC  H15X24919   2.482   6.712   3.851 -0.0217 -1.0236 -1.3795
  186POPC  H15Y24920   2.640   6.742   3.799 -0.5548 -1.7737 -1.2856
  186POPC  C31624921   2.642   6.647   4.001 -0.1411  0.4597 -0.1246
  186POPC  H16X24922   2.607   6.548   4.038  0.7144  0.1278 -0.1953
  186POPC  H16Y24923   2.595   6.719   4.071 -1.9965  0.4376 -1.2838
  186POPC  H16Z24924   2.753   6.646   4.005 -0.0896  2.4111 -0.2668
  187POPC     N24925   1.999   1.916   0.870 -0.0834  0.1600 -0.1705
  187POPC   C1224926   1.942   1.842   0.995  0.7653 -0.0061  0.0536
  187POPC  H12A24927   1.902   1.750   0.956  1.0034 -0.2429  0.3568
  187POPC  H12B24928   1.862   1.901   1.037  2.8794  1.3245  2.5390
  187POPC   C1324929   2.049   2.049   0.906  0.4890 -0.5128 -0.0922
  187POPC  H13A24930   1.967   2.103   0.951 -0.0157 -0.2599 -1.2698
  187POPC  H13B24931   2.127   2.053   0.980 -0.4126 -1.1344  0.9136
  187POPC  H13C24932   2.083   2.096   0.814  3.8197 -2.5888 -0.0752
  187POPC   C1424933   2.119   1.834   0.824  0.0682 -0.6980 -0.2213
  187POPC  H14A24934   2.102   1.728   0.816  2.1177 -1.0505 -0.3827
  187POPC  H14B24935   2.147   1.871   0.727 -2.1071 -1.9065 -1.4014
  187POPC  H14C24936   2.199   1.858   0.892 -0.0294  0.9194 -0.6292
  187POPC   C1524937   1.900   1.930   0.760  0.1425  0.0370 -0.1449
  187POPC  H15A24938   1.893   1.827   0.729 -2.1575  0.3378 -0.8374
  187POPC  H15B24939   1.935   1.994   0.680 -0.8973  0.6298 -0.1567
  187POPC  H15C24940   1.805   1.964   0.800  0.8015  2.1771 -0.2811
  187POPC   C1124941   2.036   1.820   1.119 -0.4232 -0.3257  0.5755
  187POPC  H11A24942   2.092   1.727   1.093 -3.1918 -1.5285 -1.7089
  187POPC  H11B24943   1.971   1.777   1.198  0.7343 -1.3877  0.9963
  187POPC     P24944   2.048   2.042   1.244  0.0697 -0.0065 -0.1504
  187POPC   O1324945   1.921   2.073   1.177  0.2310 -0.1347 -0.8428
  187POPC   O1424946   2.137   2.157   1.262 -0.0678 -0.5885  0.0147
  187POPC   O1224947   2.115   1.924   1.173 -0.0227  0.0444  0.2404
  187POPC   O1124948   2.012   1.984   1.388  0.3023 -0.1124  0.0406
  187POPC    C124949   2.078   1.873   1.451  0.2690  0.5148 -0.0101
  187POPC    HA24950   2.164   1.838   1.390  0.9201 -0.0559  1.1938
  187POPC    HB24951   2.008   1.787   1.454  0.7133  0.1671  0.8247
  187POPC    C224952   2.128   1.892   1.599  0.0990  0.4941  0.1617
  187POPC    HS24953   2.193   1.810   1.637 -0.1750  0.5970  0.8696
  187POPC   O2124954   2.018   1.912   1.688 -0.4799 -0.5129  0.3189
  187POPC   C2124955   1.998   1.837   1.796  0.4711  0.0783  0.3000
  187POPC   O2224956   2.069   1.746   1.829  0.2934 -0.5569 -0.3103
  187POPC   C2224957   1.874   1.891   1.869  0.4432  0.3984  0.8403
  187POPC   H2R24958   1.791   1.886   1.795 -0.9201  1.1054  2.2691
  187POPC   H2S24959   1.891   1.996   1.901 -0.8391  1.9666 -3.0273
  187POPC    C324960   2.215   2.011   1.607 -0.2830 -0.6118  0.5439
  187POPC    HX24961   2.156   2.095   1.562  1.8585  0.3151 -0.6708
  187POPC    HY24962   2.306   2.010   1.543 -0.1353 -0.6110  0.7536
  187POPC   O3124963   2.237   2.062   1.743 -0.0492 -0.1380 -0.0190
  187POPC   C3124964   2.327   1.999   1.814 -0.4168 -0.3674  0.0358
  187POPC   O3224965   2.387   1.900   1.771 -0.3031 -0.6261 -0.9199
  187POPC   C3224966   2.332   2.063   1.953  0.0882  0.9455 -0.4344
  187POPC   H2X24967   2.227   2.086   1.982 -0.5197 -2.3650  0.4125
  187POPC   H2Y24968   2.393   2.154   1.939  1.4959  0.0665 -0.2612
  187POPC   C2324969   1.828   1.807   1.995 -0.2814  0.5267 -0.1352
  187POPC   H3R24970   1.920   1.794   2.056 -0.6757 -2.5904 -0.0697
  187POPC   H3S24971   1.789   1.706   1.973 -0.3288  0.9530 -2.3091
  187POPC   C2424972   1.729   1.871   2.093  0.5374  0.7887  0.6911
  187POPC   H4R24973   1.627   1.859   2.050  2.0158  0.0768 -2.9513
  187POPC   H4S24974   1.763   1.972   2.122 -0.5098  0.7216  2.3477
  187POPC   C2524975   1.736   1.789   2.225  0.1529  0.0564  0.0542
  187POPC   H5R24976   1.835   1.807   2.272  0.8504  0.7299 -1.6153
  187POPC   H5S24977   1.717   1.680   2.212  1.6243 -0.1944 -0.1078
  187POPC   C2624978   1.634   1.848   2.318  0.2927  0.6331  0.1988
  187POPC   H6R24979   1.537   1.840   2.264 -1.7933  0.2300  3.6640
  187POPC   H6S24980   1.658   1.952   2.350  0.4616  0.3101  1.1270
  187POPC   C2724981   1.611   1.759   2.440 -0.0671  0.3260  0.1273
  187POPC   H7R24982   1.621   1.651   2.417 -0.1607  0.1231  0.9970
  187POPC   H7S24983   1.507   1.781   2.473 -0.2381  0.3429 -0.4185
  187POPC   C2824984   1.714   1.793   2.550 -0.4596  0.1360  0.2387
  187POPC   H8R24985   1.693   1.891   2.597  1.3644 -0.0468  1.5453
  187POPC   H8S24986   1.818   1.791   2.511 -0.1938  0.9499  0.8832
  187POPC   C2924987   1.717   1.682   2.650  0.6073 -0.0579 -0.3531
  187POPC   H9124988   1.707   1.583   2.605 -0.0433  0.4464 -1.3539
  187POPC  C21024989   1.729   1.691   2.785  0.1955  0.0187  0.6228
  187POPC  H10124990   1.711   1.598   2.841  0.1057 -1.4427 -1.6814
  187POPC  C21124991   1.752   1.813   2.867 -0.3745 -0.1448  0.3741
  187POPC  H11R24992   1.701   1.900   2.820  1.1356  0.5418 -0.0723
  187POPC  H11S24993   1.858   1.843   2.854 -0.9041  1.0994 -1.5892
  187POPC  C21224994   1.712   1.801   3.013  0.0189  0.4313 -0.3838
  187POPC  H12R24995   1.611   1.756   3.021 -0.0966  0.6919 -0.3429
  187POPC  H12S24996   1.696   1.903   3.055 -1.4980 -0.1577  0.5230
  187POPC  C21324997   1.815   1.727   3.105  0.5520 -0.2080 -0.5192
  187POPC  H13R24998   1.919   1.768   3.103  1.2205 -1.4619  2.4969
  187POPC  H13S24999   1.834   1.622   3.074  2.1553 -0.5352  1.3200
  187POPC  C21425000   1.780   1.714   3.256  0.1042 -0.0241  0.6891
  187POPC  H14R25001   1.848   1.650   3.315 -1.9835  0.7251  4.2197
  187POPC  H14S25002   1.686   1.658   3.272  1.4191 -2.0256  1.7624
  187POPC  C21525003   1.782   1.853   3.324  0.0217 -0.3710  0.8315
  187POPC  H15R25004   1.744   1.846   3.428  0.3052 -2.9366  0.8254
  187POPC  H15S25005   1.715   1.917   3.263  0.4230 -0.3159  0.4404
  187POPC  C21625006   1.922   1.932   3.318 -0.0069 -0.2195  0.1820
  187POPC  H16R25007   1.957   1.941   3.213  1.9922  0.5132  0.8657
  187POPC  H16S25008   1.999   1.880   3.378  1.0570 -0.2477 -1.1864
  187POPC  C21725009   1.900   2.080   3.365 -0.5788  0.0308  0.6346
  187POPC  H17R25010   1.831   2.142   3.303 -0.5997  0.6970  1.3069
  187POPC  H17S25011   2.002   2.124   3.356 -1.0835  0.9633 -0.8435
  187POPC  C21825012   1.845   2.097   3.507 -0.0913  0.3348 -0.1946
  187POPC  H18R25013   1.742   2.054   3.511  0.1622 -0.3310 -0.6803
  187POPC  H18S25014   1.839   2.207   3.525  0.6985  0.3789 -0.1905
  187POPC  H18T25015   1.908   2.062   3.591 -0.2289 -0.9112 -0.5872
  187POPC   C3325016   2.398   1.960   2.048 -0.2923  0.0584  0.4466
  187POPC   H3X25017   2.437   2.017   2.136  1.2933  1.1992 -0.9338
  187POPC   H3Y25018   2.489   1.918   1.998  0.2737  2.0712 -0.2908
  187POPC   C3425019   2.293   1.844   2.074 -0.2347 -0.1463  0.3753
  187POPC   H4X25020   2.294   1.774   1.988 -1.1084  1.4914 -1.0335
  187POPC   H4Y25021   2.203   1.910   2.071  0.8248  1.3271 -0.9241
  187POPC   C3525022   2.318   1.767   2.200 -0.8161 -0.3012  0.7589
  187POPC   H5X25023   2.342   1.820   2.295  0.4198  0.6762 -0.0644
  187POPC   H5Y25024   2.410   1.704   2.198 -0.5793  0.0339  1.0002
  187POPC   C3625025   2.206   1.658   2.218  0.2408  0.0954 -0.1444
  187POPC   H6X25026   2.209   1.593   2.128 -1.7802 -0.0313 -0.1574
  187POPC   H6Y25027   2.113   1.717   2.204 -0.0390 -0.5265 -0.9540
  187POPC   C3725028   2.205   1.583   2.355  0.3692 -0.0825  0.4072
  187POPC   H7X25029   2.193   1.661   2.433  0.9252 -1.4522  1.9258
  187POPC   H7Y25030   2.305   1.537   2.365 -0.1944 -1.0968  1.6913
  187POPC   C3825031   2.088   1.476   2.375  0.4083 -0.6974 -0.5721
  187POPC   H8X25032   2.103   1.395   2.300 -0.9258 -0.3035 -1.3064
  187POPC   H8Y25033   1.992   1.531   2.360  0.6099  0.3478  1.6361
  187POPC   C3925034   2.071   1.425   2.516 -0.4993  0.5742  0.4042
  187POPC   H9X25035   2.025   1.503   2.580 -0.1915  0.8276  0.3168
  187POPC   H9Y25036   2.170   1.418   2.567  0.0178 -3.0738 -0.7771
  187POPC  C31025037   1.988   1.293   2.533 -0.3240  0.1745  0.0719
  187POPC  H10X25038   1.892   1.297   2.478 -0.1776 -0.0384 -0.2101
  187POPC  H10Y25039   1.962   1.278   2.640 -1.8976  0.2767 -0.2833
  187POPC  C31125040   2.059   1.170   2.475 -0.4120 -0.3147 -0.5388
  187POPC  H11X25041   2.159   1.164   2.523 -0.7301 -1.1362  0.0419
  187POPC  H11Y25042   2.078   1.191   2.368  0.5035 -0.6747 -0.4541
  187POPC  C31225043   1.988   1.035   2.479  0.2961  0.2592  0.5391
  187POPC  H12X25044   2.026   0.971   2.396 -3.4731  1.0261 -1.9950
  187POPC  H12Y25045   1.880   1.051   2.463  0.4527  0.2975 -0.5385
  187POPC  C31325046   1.999   0.960   2.612 -0.3151  0.5000  0.6017
  187POPC  H13X25047   2.007   1.046   2.682 -0.2482  0.2308  0.9245
  187POPC  H13Y25048   2.090   0.899   2.594 -1.2915 -0.3126 -2.1508
  187POPC  C31425049   1.879   0.861   2.642 -0.9744  0.7898  0.5115
  187POPC  H14X25050   1.782   0.909   2.618 -0.8137 -0.3762 -3.0453
  187POPC  H14Y25051   1.885   0.835   2.750  0.3218 -0.6895  0.1240
  187POPC  C31525052   1.902   0.728   2.557  0.7162  0.6011 -0.0792
  187POPC  H15X25053   1.985   0.667   2.599 -2.1552 -2.9297  0.9587
  187POPC  H15Y25054   1.931   0.766   2.457 -0.3324  2.5576  0.3146
  187POPC  C31625055   1.775   0.639   2.561 -0.0472  0.1446 -0.0906
  187POPC  H16X25056   1.811   0.544   2.515 -0.6012 -0.6488  1.0772
  187POPC  H16Y25057   1.683   0.692   2.530  0.9352  2.5034  0.8049
  187POPC  H16Z25058   1.758   0.618   2.668  0.7407  3.5670  0.8229
  188POPC     N25059   6.959   5.600   2.268 -0.1903  0.0628 -0.5152
  188POPC   C1225060   6.969   5.742   2.210 -0.0302  0.1431  0.0284
  188POPC  H12A25061   7.045   5.728   2.135 -0.8163  2.7164 -1.3764
  188POPC  H12B25062   7.009   5.802   2.290 -1.9741  1.1697  0.2898
  188POPC   C1325063   6.893   5.503   2.176 -0.1909  0.3532 -0.3426
  188POPC  H13A25064   6.878   5.406   2.220  1.0368  0.2405 -0.1395
  188POPC  H13B25065   6.794   5.539   2.152 -0.0193  0.6907 -0.5621
  188POPC  H13C25066   6.947   5.491   2.083  0.9652 -0.4635  0.4014
  188POPC   C1425067   7.098   5.563   2.320 -0.2704  0.2223  0.3631
  188POPC  H14A25068   7.090   5.488   2.397 -0.3904 -0.1996 -0.0593
  188POPC  H14B25069   7.163   5.515   2.249 -1.5499 -0.1132 -0.6276
  188POPC  H14C25070   7.144   5.651   2.363  0.4197 -0.5317  1.2108
  188POPC   C1525071   6.865   5.596   2.385 -0.1568 -0.8525  0.6861
  188POPC  H15A25072   6.938   5.604   2.464  3.3227  3.3917 -2.4563
  188POPC  H15B25073   6.824   5.497   2.399 -0.2641 -0.6826  1.6073
  188POPC  H15C25074   6.789   5.673   2.381  0.3255 -0.4098 -0.8889
  188POPC   C1125075   6.836   5.808   2.162  0.0264  0.0906  0.5326
  188POPC  H11A25076   6.788   5.736   2.093  1.4421  1.8059 -2.4435
  188POPC  H11B25077   6.868   5.894   2.100  3.7879 -0.7229  1.1312
  188POPC     P25078   6.601   5.888   2.226 -0.3098 -0.2673  0.2872
  188POPC   O1325079   6.539   5.771   2.160 -0.1762 -0.2261 -0.0074
  188POPC   O1425080   6.607   6.010   2.142 -0.0238  0.1219 -0.1797
  188POPC   O1225081   6.751   5.848   2.271  0.4151 -0.1790 -0.4550
  188POPC   O1125082   6.545   5.918   2.372 -0.1732 -0.3224  0.1789
  188POPC    C125083   6.605   5.846   2.488 -0.8596 -0.4561  0.0348
  188POPC    HA25084   6.703   5.880   2.529 -0.6733  1.5669 -1.9123
  188POPC    HB25085   6.602   5.736   2.479  1.4140 -0.6173  0.6151
  188POPC    C225086   6.515   5.869   2.622  0.1108  0.1639 -0.2554
  188POPC    HS25087   6.416   5.832   2.589  1.7478 -2.4627 -2.7820
  188POPC   O2125088   6.502   6.007   2.643 -0.3661 -0.4742 -0.2636
  188POPC   C2125089   6.389   6.069   2.677  0.1800  0.1341 -0.8209
  188POPC   O2225090   6.279   6.018   2.672 -0.2224 -0.7169 -0.6148
  188POPC   C2225091   6.420   6.214   2.704 -0.7169 -0.2484 -0.6444
  188POPC   H2R25092   6.367   6.274   2.627 -0.7107 -0.0687 -0.5119
  188POPC   H2S25093   6.530   6.227   2.692 -0.6601  0.0453  0.0995
  188POPC    C325094   6.568   5.814   2.750 -0.2815 -0.1405 -0.8626
  188POPC    HX25095   6.662   5.870   2.765 -1.4620  1.3420  1.7453
  188POPC    HY25096   6.589   5.705   2.739  0.2909 -0.1629  0.3686
  188POPC   O3125097   6.488   5.843   2.863  0.1999 -0.5369  0.4141
  188POPC   C3125098   6.385   5.764   2.891 -0.9080  0.3640  0.4828
  188POPC   O3225099   6.372   5.658   2.837  0.0064  0.0963 -0.1629
  188POPC   C3225100   6.304   5.815   3.000  0.0522 -0.3507  0.5263
  188POPC   H2X25101   6.219   5.881   2.971 -0.4981 -1.6731 -1.0089
  188POPC   H2Y25102   6.366   5.879   3.066  0.5439 -0.1144 -0.1572
  188POPC   C2325103   6.375   6.271   2.839  0.1975 -0.2583  0.3898
  188POPC   H3R25104   6.264   6.272   2.849  0.1261 -1.9868 -0.0783
  188POPC   H3S25105   6.414   6.375   2.843  0.6688 -0.4552  1.0716
  188POPC   C2425106   6.424   6.198   2.963 -0.0043 -0.4384  0.1216
  188POPC   H4R25107   6.535   6.202   2.961  0.1407 -2.8678  0.1548
  188POPC   H4S25108   6.392   6.092   2.960  0.9752 -0.7896 -3.6038
  188POPC   C2525109   6.391   6.266   3.095 -0.3937  0.0890 -0.2592
  188POPC   H5R25110   6.419   6.373   3.093  2.0525 -0.4962 -2.6236
  188POPC   H5S25111   6.445   6.212   3.175  0.2829  0.5607 -0.3943
  188POPC   C2625112   6.241   6.255   3.127  0.4353 -0.2367 -0.4909
  188POPC   H6R25113   6.172   6.244   3.040 -1.0365 -4.3653  0.9246
  188POPC   H6S25114   6.208   6.341   3.189  0.0174 -0.7160 -0.0307
  188POPC   C2725115   6.202   6.132   3.220 -0.1749 -0.5327 -0.1058
  188POPC   H7R25116   6.246   6.163   3.317  0.2229  1.7672 -0.9589
  188POPC   H7S25117   6.261   6.048   3.179  0.7430  0.9472 -2.0033
  188POPC   C2825118   6.053   6.114   3.215  0.7415  0.0635 -0.6090
  188POPC   H8R25119   6.027   6.106   3.107 -2.1998 -0.2064  0.0513
  188POPC   H8S25120   6.015   6.200   3.273 -1.4545 -0.9771 -0.4161
  188POPC   C2925121   6.024   5.990   3.293 -0.1582 -0.4841 -0.1418
  188POPC   H9125122   6.074   5.902   3.251  0.9766  0.2044 -0.2817
  188POPC  C21025123   5.936   5.977   3.392  0.3310  0.3271  0.2095
  188POPC  H10125124   5.926   5.882   3.446 -0.9989 -0.0537 -0.6510
  188POPC  C21125125   5.861   6.092   3.445 -0.3821  0.2125 -0.0672
  188POPC  H11R25126   5.767   6.047   3.484  1.2970 -2.4482  1.1098
  188POPC  H11S25127   5.844   6.165   3.363  1.0590  1.2122  0.4774
  188POPC  C21225128   5.925   6.167   3.563 -0.0884 -0.1387 -0.6858
  188POPC  H12R25129   6.034   6.144   3.566 -0.0171  0.1888  2.2400
  188POPC  H12S25130   5.883   6.132   3.659  0.6701  1.1296  0.1422
  188POPC  C21325131   5.915   6.322   3.559 -1.1963  0.8139  0.4824
  188POPC  H13R25132   5.970   6.340   3.464 -0.3159 -1.5457  0.4713
  188POPC  H13S25133   5.969   6.373   3.641  0.8123 -1.1540  0.4636
  188POPC  C21425134   5.775   6.372   3.560  0.4447 -0.7818 -0.4930
  188POPC  H14R25135   5.709   6.306   3.498 -0.8974  2.0004 -2.2706
  188POPC  H14S25136   5.760   6.472   3.515  0.8323 -1.1326 -1.4399
  188POPC  C21525137   5.720   6.392   3.700 -0.0106 -0.9977 -0.1154
  188POPC  H15R25138   5.762   6.489   3.733 -0.4445 -0.9763  0.3827
  188POPC  H15S25139   5.757   6.319   3.776  1.1732 -0.0439  0.2498
  188POPC  C21625140   5.565   6.411   3.709  0.2377 -0.3572 -0.1101
  188POPC  H16R25141   5.543   6.457   3.610 -0.7658 -1.0165 -0.2003
  188POPC  H16S25142   5.537   6.486   3.786  0.1891 -1.5771  1.0957
  188POPC  C21725143   5.496   6.281   3.724  0.1800 -0.2373 -0.7194
  188POPC  H17R25144   5.484   6.270   3.834 -1.8021 -0.7665 -0.9492
  188POPC  H17S25145   5.565   6.206   3.679  2.9130  2.8004 -1.9612
  188POPC  C21825146   5.347   6.268   3.681 -0.0982  0.3602 -0.0967
  188POPC  H18R25147   5.287   6.350   3.725  0.7491  0.5103  0.8067
  188POPC  H18S25148   5.293   6.173   3.703 -1.8983  0.7645 -2.3560
  188POPC  H18T25149   5.338   6.281   3.571  0.3326 -0.8567 -0.2935
  188POPC   C3325150   6.231   5.695   3.072 -0.3895 -0.0275  0.1274
  188POPC   H3X25151   6.137   5.655   3.029 -0.4557 -0.4584  0.6515
  188POPC   H3Y25152   6.208   5.740   3.171  4.6190 -0.1445  1.6615
  188POPC   C3425153   6.328   5.582   3.114  0.5099 -0.2207  0.7426
  188POPC   H4X25154   6.417   5.636   3.151  1.3812 -1.7744  1.0033
  188POPC   H4Y25155   6.364   5.521   3.029 -1.3187  1.3190 -1.2762
  188POPC   C3525156   6.286   5.477   3.223  0.0539  0.2528  0.3556
  188POPC   H5X25157   6.363   5.399   3.243 -0.7064 -1.1945 -1.9638
  188POPC   H5Y25158   6.192   5.430   3.189 -1.2137  1.8261  1.5581
  188POPC   C3625159   6.245   5.537   3.355  0.1532  0.3912 -0.1460
  188POPC   H6X25160   6.178   5.473   3.416 -2.1879 -0.2256 -3.1148
  188POPC   H6Y25161   6.184   5.627   3.335  1.1835  0.8872 -1.1557
  188POPC   C3725162   6.360   5.602   3.439 -0.0968  0.5727 -0.2156
  188POPC   H7X25163   6.446   5.619   3.371 -1.7252  0.7662 -2.3011
  188POPC   H7Y25164   6.392   5.523   3.511 -0.8838 -2.3643 -2.8546
  188POPC   C3825165   6.328   5.736   3.508 -0.0559  0.0342 -0.3064
  188POPC   H8X25166   6.285   5.805   3.433 -0.1311  1.0437  0.6415
  188POPC   H8Y25167   6.423   5.786   3.539 -0.3036 -0.4916  1.4537
  188POPC   C3925168   6.237   5.737   3.630 -0.1389 -0.8876  0.3813
  188POPC   H9X25169   6.245   5.641   3.685  0.8801 -0.8939  0.2425
  188POPC   H9Y25170   6.134   5.735   3.588  0.2725 -0.0780 -0.7297
  188POPC  C31025171   6.252   5.859   3.718 -0.2597  0.3905 -0.1402
  188POPC  H10X25172   6.222   5.940   3.649  1.4093  2.3856  1.3665
  188POPC  H10Y25173   6.356   5.890   3.738  0.2535 -1.1211 -0.3153
  188POPC  C31125174   6.164   5.869   3.843 -0.0290 -0.3721  0.2864
  188POPC  H11X25175   6.149   5.777   3.904 -1.6363 -0.5925 -0.3940
  188POPC  H11Y25176   6.064   5.880   3.797 -0.6444  0.5799  1.7664
  188POPC  C31225177   6.196   5.990   3.934 -0.0307 -0.4237  0.7956
  188POPC  H12X25178   6.300   5.980   3.972 -0.0532  0.3228  1.0681
  188POPC  H12Y25179   6.130   5.999   4.023  0.2748  1.0902  0.8970
  188POPC  C31325180   6.178   6.133   3.865 -0.1070  1.2290  0.3336
  188POPC  H13X25181   6.073   6.172   3.863  0.0825  1.8323  1.3009
  188POPC  H13Y25182   6.217   6.137   3.761  1.1972 -1.8001  0.6176
  188POPC  C31425183   6.263   6.230   3.949  0.9591 -0.7621 -0.3123
  188POPC  H14X25184   6.372   6.211   3.941  1.0503 -0.2281 -0.3998
  188POPC  H14Y25185   6.235   6.211   4.055  0.7916  1.3927  0.0921
  188POPC  C31525186   6.214   6.375   3.922 -0.3865  0.2262  0.6474
  188POPC  H15X25187   6.105   6.380   3.940 -0.4831 -2.5732  1.2471
  188POPC  H15Y25188   6.230   6.398   3.815  1.8417 -1.0484  0.6452
  188POPC  C31625189   6.275   6.489   4.010  0.0372 -0.3983  0.6415
  188POPC  H16X25190   6.243   6.486   4.117 -0.9600  1.5711  0.4398
  188POPC  H16Y25191   6.238   6.585   3.967 -2.0961  0.0002  3.1035
  188POPC  H16Z25192   6.386   6.486   4.000 -0.1713 -2.2523 -2.0408
  189POPC     N25193   0.010   1.446   1.634  0.4085 -0.3018  0.1605
  189POPC   C1225194   0.060   1.372   1.753 -0.3245  0.0261 -0.2418
  189POPC  H12A25195   0.167   1.360   1.747 -0.2919 -0.6529  1.2848
  189POPC  H12B25196   0.020   1.272   1.757  1.6190 -0.7504  1.4028
  189POPC   C1325197  -0.139   1.438   1.644  0.1626 -0.1922 -0.0263
  189POPC  H13A25198  -0.173   1.338   1.623  0.1136 -0.3033  0.5676
  189POPC  H13B25199  -0.162   1.468   1.745  0.6931 -0.7411  0.2600
  189POPC  H13C25200  -0.196   1.501   1.577  1.1286 -0.3460 -1.0334
  189POPC   C1425201   0.049   1.594   1.629 -1.0029  0.0725  0.4845
  189POPC  H14A25202   0.153   1.603   1.604 -1.0790  0.1687  0.2004
  189POPC  H14B25203  -0.016   1.630   1.551  0.0162 -0.2813 -0.5632
  189POPC  H14C25204   0.015   1.643   1.720 -2.9270 -1.8648  0.9090
  189POPC   C1525205   0.058   1.379   1.514 -0.5013 -0.2881  0.3403
  189POPC  H15A25206   0.157   1.334   1.512  0.1585  1.0984  0.1664
  189POPC  H15B25207   0.037   1.422   1.418 -0.0932 -0.2273  0.2761
  189POPC  H15C25208   0.008   1.284   1.510  0.8984 -1.0941  1.0131
  189POPC   C1125209   0.025   1.431   1.896  1.0216 -0.1290  0.1102
  189POPC  H11A25210   0.071   1.530   1.918  0.7991  0.2360 -0.9921
  189POPC  H11B25211   0.085   1.362   1.959  0.2661 -0.9763 -0.0795
  189POPC     P25212  -0.201   1.300   1.967 -0.0725  0.0737  0.0467
  189POPC   O1325213  -0.151   1.196   1.870 -0.2216  0.2078 -0.2149
  189POPC   O1425214  -0.341   1.340   1.954  0.0663 -0.0366 -0.3227
  189POPC   O1225215  -0.115   1.431   1.936  0.4012  0.2347 -0.4668
  189POPC   O1125216  -0.170   1.263   2.114  0.1866  0.0523  0.8086
  189POPC    C125217  -0.261   1.188   2.188 -0.6241  0.4030  0.3777
  189POPC    HA25218  -0.314   1.112   2.126 -0.2464 -0.0569  0.6085
  189POPC    HB25219  -0.338   1.253   2.234 -2.0833 -0.1435 -1.2145
  189POPC    C225220  -0.186   1.110   2.297  0.5538  0.2075 -0.2376
  189POPC    HS25221  -0.261   1.049   2.353  1.4128 -0.8460 -0.2125
  189POPC   O2125222  -0.114   1.203   2.384 -0.3500  0.0499 -0.6743
  189POPC   C2125223  -0.187   1.287   2.454  0.2644  0.2980  0.1963
  189POPC   O2225224  -0.305   1.290   2.460  0.1988  0.6368  0.6191
  189POPC   C2225225  -0.095   1.388   2.532 -0.0518  0.2504  0.6529
  189POPC   H2R25226  -0.065   1.449   2.444 -0.8287  0.5196  0.5691
  189POPC   H2S25227  -0.009   1.334   2.575 -0.4740 -0.2624  0.8639
  189POPC    C325228  -0.090   1.007   2.237 -0.1420 -0.5933 -0.4094
  189POPC    HX25229  -0.022   1.075   2.182  0.6213  0.3615  1.5855
  189POPC    HY25230  -0.129   0.934   2.164 -0.9894 -0.9882  0.4175
  189POPC   O3125231  -0.015   0.937   2.335  0.0698 -0.0702 -0.7382
  189POPC   C3125232  -0.076   0.836   2.400 -0.1216  0.2315 -0.6389
  189POPC   O3225233  -0.192   0.801   2.378  0.7909 -0.2144 -0.1647
  189POPC   C3225234   0.028   0.768   2.489 -0.1900  0.4560  0.0943
  189POPC   H2X25235   0.070   0.848   2.553 -1.1853  1.4577 -0.4734
  189POPC   H2Y25236   0.109   0.733   2.422  0.0025  1.1408 -0.0385
  189POPC   C2325237  -0.169   1.486   2.622 -0.3649 -0.3091 -0.4183
  189POPC   H3R25238  -0.256   1.538   2.576  1.0308  1.8496 -0.7690
  189POPC   H3S25239  -0.097   1.568   2.641 -0.5023 -0.1695 -0.4970
  189POPC   C2425240  -0.211   1.430   2.759 -0.6406 -0.4524  0.0407
  189POPC   H4R25241  -0.130   1.368   2.802 -1.0445 -0.1061  1.3213
  189POPC   H4S25242  -0.297   1.361   2.739  0.8462 -2.4216  0.1084
  189POPC   C2525243  -0.244   1.535   2.871  0.2362 -0.3277 -0.4418
  189POPC   H5R25244  -0.312   1.606   2.819  0.5380 -0.2551 -0.7360
  189POPC   H5S25245  -0.150   1.592   2.881  0.3178  0.2222 -3.5288
  189POPC   C2625246  -0.299   1.478   3.005  0.0051 -0.1012 -0.0829
  189POPC   H6R25247  -0.226   1.407   3.049 -1.3688 -0.5963  1.4816
  189POPC   H6S25248  -0.389   1.417   2.981  1.6021 -2.7118  0.2123
  189POPC   C2725249  -0.343   1.590   3.103  0.0218 -0.2917  0.4217
  189POPC   H7R25250  -0.436   1.638   3.066  0.4691 -1.0402 -1.8432
  189POPC   H7S25251  -0.272   1.675   3.108 -3.7536  3.1831 -0.3191
  189POPC   C2825252  -0.368   1.532   3.243 -0.7675  0.2564  0.9652
  189POPC   H8R25253  -0.393   1.624   3.301 -0.9725  1.5089 -0.9937
  189POPC   H8S25254  -0.277   1.490   3.290  0.3212 -1.0697 -2.0343
  189POPC   C2925255  -0.486   1.438   3.261 -0.2152  0.0544  0.1148
  189POPC   H9125256  -0.463   1.335   3.232 -1.2756  0.4881 -2.5858
  189POPC  C21025257  -0.619   1.460   3.287 -1.2177  0.7932  0.0791
  189POPC  H10125258  -0.681   1.370   3.297 -0.4258  0.1124 -0.8512
  189POPC  C21125259  -0.685   1.596   3.285  0.2216 -0.2195  0.0184
  189POPC  H11R25260  -0.784   1.586   3.235  0.2277  0.0342 -0.0441
  189POPC  H11S25261  -0.631   1.670   3.222 -1.3172  1.1008  0.1599
  189POPC  C21225262  -0.687   1.675   3.419 -0.5647  0.2800  0.7934
  189POPC  H12R25263  -0.580   1.685   3.449  0.1210 -0.8828 -1.1394
  189POPC  H12S25264  -0.749   1.623   3.496  2.2147  0.5923  3.4367
  189POPC  C21325265  -0.747   1.812   3.405 -0.8178  0.4041 -0.5075
  189POPC  H13R25266  -0.847   1.806   3.358 -0.2108  1.2154 -1.9896
  189POPC  H13S25267  -0.672   1.866   3.342 -0.2641 -1.6112 -1.6511
  189POPC  C21425268  -0.762   1.893   3.538  0.3264 -0.1746  0.4044
  189POPC  H14R25269  -0.666   1.875   3.590  0.9473  1.9519  0.0864
  189POPC  H14S25270  -0.847   1.849   3.595 -0.4784  0.9976  0.1489
  189POPC  C21525271  -0.785   2.048   3.522 -0.5386  0.0250  0.2297
  189POPC  H15R25272  -0.884   2.042   3.471 -0.1941  1.0441 -0.5977
  189POPC  H15S25273  -0.710   2.103   3.462 -0.6383  1.7194  1.5521
  189POPC  C21625274  -0.800   2.100   3.654  0.2953  0.5199 -0.5444
  189POPC  H16R25275  -0.884   2.051   3.708  1.5397 -0.1615  0.8368
  189POPC  H16S25276  -0.829   2.208   3.654  1.5949  0.8873 -0.1723
  189POPC  C21725277  -0.687   2.076   3.750 -0.0394  0.7294 -0.3423
  189POPC  H17R25278  -0.589   2.095   3.700  0.3983 -1.6618 -0.5220
  189POPC  H17S25279  -0.687   1.970   3.785 -1.1957  1.3508  1.7318
  189POPC  C21825280  -0.687   2.173   3.876 -0.2544  0.3957 -0.2000
  189POPC  H18R25281  -0.660   2.278   3.849 -3.6172  2.2354  2.8444
  189POPC  H18S25282  -0.617   2.129   3.951  0.1384 -0.5678 -1.1063
  189POPC  H18T25283  -0.793   2.191   3.904  0.0029  4.0099 -0.9946
  189POPC   C3325284  -0.035   0.659   2.572 -0.1206  0.2717  0.7201
  189POPC   H3X25285  -0.056   0.572   2.506  2.4172 -0.5537  0.8967
  189POPC   H3Y25286  -0.127   0.694   2.623  0.1881  2.5476 -0.1536
  189POPC   C3425287   0.060   0.589   2.678  0.5665 -0.0611 -0.1952
  189POPC   H4X25288   0.163   0.565   2.645  1.2611  1.1531  0.9901
  189POPC   H4Y25289   0.005   0.496   2.701  0.1919  0.3472  0.5988
  189POPC   C3525290   0.068   0.665   2.811 -0.6776  0.4966 -0.8565
  189POPC   H5X25291  -0.023   0.672   2.874  0.4926 -0.6654  1.0653
  189POPC   H5Y25292   0.102   0.769   2.791  0.4950 -0.1249 -2.3277
  189POPC   C3625293   0.182   0.589   2.894 -0.4181  0.2461  0.3878
  189POPC   H6X25294   0.276   0.597   2.835  0.5205  1.8526  1.9971
  189POPC   H6Y25295   0.161   0.484   2.923 -1.9458  0.8052  1.4301
  189POPC   C3725296   0.212   0.669   3.028 -0.1661  0.3672  0.7195
  189POPC   H7X25297   0.122   0.680   3.092  0.4285  0.3585  1.5819
  189POPC   H7Y25298   0.230   0.773   2.995 -0.9417 -0.0543 -1.1665
  189POPC   C3825299   0.330   0.608   3.113 -0.2010 -0.0387 -0.5547
  189POPC   H8X25300   0.414   0.570   3.052 -0.2364 -0.1964 -0.5037
  189POPC   H8Y25301   0.297   0.520   3.172  4.0606 -0.8194  1.0767
  189POPC   C3925302   0.381   0.709   3.218 -0.4830  0.0669 -0.2632
  189POPC   H9X25303   0.454   0.656   3.284  1.5864 -0.2580 -2.6520
  189POPC   H9Y25304   0.298   0.747   3.282  0.9050  0.5784  1.3185
  189POPC  C31025305   0.455   0.828   3.163 -0.0100 -0.0093 -0.2674
  189POPC  H10X25306   0.394   0.886   3.092  0.7371  0.6865 -0.3497
  189POPC  H10Y25307   0.544   0.800   3.104  0.3865  1.8584 -0.6022
  189POPC  C31125308   0.498   0.904   3.282 -0.0987 -0.1177  1.2693
  189POPC  H11X25309   0.561   0.835   3.341 -1.1656 -2.2347  0.0439
  189POPC  H11Y25310   0.411   0.929   3.346  0.5859  0.4146  2.0092
  189POPC  C31225311   0.570   1.037   3.240 -0.5938  1.1020  0.0445
  189POPC  H12X25312   0.515   1.125   3.280  0.3234  2.1603 -0.9273
  189POPC  H12Y25313   0.576   1.043   3.129  3.6916  0.8413  0.1119
  189POPC  C31325314   0.720   1.021   3.284  0.0211 -0.6224 -0.1672
  189POPC  H13X25315   0.780   0.941   3.235  1.3087  0.2269 -0.0228
  189POPC  H13Y25316   0.712   1.006   3.394 -2.7433 -0.5429 -0.2856
  189POPC  C31425317   0.806   1.152   3.283  0.5538  0.5955  0.0655
  189POPC  H14X25318   0.735   1.225   3.328 -1.0194 -1.3535  0.9170
  189POPC  H14Y25319   0.821   1.183   3.177 -0.2156 -0.4758 -0.3807
  189POPC  C31525320   0.941   1.120   3.344  0.0531 -0.7382  0.0017
  189POPC  H15X25321   0.994   1.038   3.290 -1.0386 -0.1931 -1.9804
  189POPC  H15Y25322   0.915   1.093   3.449 -2.6540 -1.9502 -0.8967
  189POPC  C31625323   1.031   1.246   3.341  0.1559 -0.1353  0.9766
  189POPC  H16X25324   0.977   1.337   3.376  0.7077 -0.1918  2.0342
  189POPC  H16Y25325   1.063   1.269   3.237  1.5353  1.0057  1.6106
  189POPC  H16Z25326   1.118   1.227   3.407 -1.1162  2.6233  3.7181
  190POPC     N25327   0.298   5.995   2.010  0.2831 -0.1939  0.1499
  190POPC   C1225328   0.193   5.905   2.054  0.0762  0.4732 -0.1832
  190POPC  H12A25329   0.148   5.932   2.148  0.7682 -1.0114  0.6265
  190POPC  H12B25330   0.231   5.804   2.064 -0.2870  0.3948  0.4523
  190POPC   C1325331   0.379   5.943   1.895 -0.4146  0.3057  0.3670
  190POPC  H13A25332   0.327   5.928   1.801  0.2601 -2.4993  0.3734
  190POPC  H13B25333   0.458   6.011   1.867 -0.5794  1.2108  1.9952
  190POPC  H13C25334   0.422   5.846   1.914 -1.4563 -0.4085 -0.7274
  190POPC   C1425335   0.237   6.127   1.973 -1.1543 -0.1193  1.1870
  190POPC  H14A25336   0.192   6.169   2.062  0.6509  2.0055  1.2080
  190POPC  H14B25337   0.317   6.195   1.947 -0.7539 -0.6854  0.9347
  190POPC  H14C25338   0.169   6.125   1.889  0.4949  0.3558 -0.2197
  190POPC   C1525339   0.391   6.023   2.124  0.4146 -0.3413  0.2234
  190POPC  H15A25340   0.478   6.081   2.095 -0.4781  0.7940 -0.2465
  190POPC  H15B25341   0.413   5.934   2.181  1.8202 -0.5369 -0.5767
  190POPC  H15C25342   0.342   6.089   2.194  0.2104 -0.7788  0.4989
  190POPC   C1125343   0.079   5.880   1.947  0.2947 -0.2149  0.6230
  190POPC  H11A25344   0.029   5.976   1.922  1.7865  0.2640 -0.6582
  190POPC  H11B25345  -0.002   5.827   2.001 -0.8492  0.3543 -0.4761
  190POPC     P25346   0.091   5.668   1.808 -0.0145 -0.0798 -0.0098
  190POPC   O1325347   0.185   5.606   1.708 -0.4624 -0.2019  0.1678
  190POPC   O1425348  -0.056   5.656   1.787  0.1904  0.0729 -0.1357
  190POPC   O1225349   0.127   5.819   1.827  0.0127 -0.2714 -0.1411
  190POPC   O1125350   0.117   5.609   1.952  0.2130  0.4650 -0.1507
  190POPC    C125351   0.242   5.555   1.985  0.2951  0.0131  0.1225
  190POPC    HA25352   0.310   5.639   2.012  0.6132 -0.2120  0.0229
  190POPC    HB25353   0.283   5.498   1.898  3.5675  1.6222  0.4651
  190POPC    C225354   0.233   5.464   2.112  0.2338 -0.1854 -0.0394
  190POPC    HS25355   0.166   5.377   2.095  0.9505 -0.5413 -1.1552
  190POPC   O2125356   0.188   5.546   2.219 -0.2084  0.1207 -0.1592
  190POPC   C2125357   0.127   5.486   2.317  0.2478  0.1349  0.1706
  190POPC   O2225358   0.123   5.364   2.342  0.4710  0.1564  0.1043
  190POPC   C2225359   0.047   5.577   2.406  1.2051 -0.3059 -0.8431
  190POPC   H2R25360  -0.059   5.596   2.377  0.8969  3.1653  1.9272
  190POPC   H2S25361   0.098   5.673   2.426 -2.2706  1.6998 -0.8943
  190POPC    C325362   0.377   5.406   2.145  0.1724  0.7315 -0.4056
  190POPC    HX25363   0.432   5.487   2.198  1.6914  0.4113 -1.4349
  190POPC    HY25364   0.428   5.393   2.047 -2.3451  0.2204 -1.7406
  190POPC   O3125365   0.378   5.285   2.228 -0.1020 -0.2249  0.2100
  190POPC   C3125366   0.370   5.172   2.176 -0.4554 -0.3669  0.3087
  190POPC   O3225367   0.324   5.147   2.065 -0.1117 -0.2096  0.6501
  190POPC   C3225368   0.431   5.062   2.264  0.0336 -0.7698 -0.4875
  190POPC   H2X25369   0.532   5.095   2.297  0.3405 -1.6999 -0.4635
  190POPC   H2Y25370   0.448   4.977   2.194  0.7011 -1.0049 -0.0423
  190POPC   C2325371   0.033   5.513   2.547  0.2477 -0.1504  0.5223
  190POPC   H3R25372   0.130   5.467   2.577  1.0824  2.1086  1.5398
  190POPC   H3S25373  -0.044   5.433   2.537  0.0982  0.1110 -0.5195
  190POPC   C2425374  -0.001   5.615   2.661  0.7870  0.0563 -0.1541
  190POPC   H4R25375  -0.108   5.642   2.648  1.1195  1.0732 -0.9637
  190POPC   H4S25376   0.071   5.699   2.674  0.0519  0.6579  0.0865
  190POPC   C2525377   0.002   5.544   2.802 -0.2112  0.0819  0.2226
  190POPC   H5R25378   0.098   5.494   2.828  0.5260 -0.5584 -3.2004
  190POPC   H5S25379  -0.070   5.461   2.786  2.6273 -2.6106  0.3506
  190POPC   C2625380  -0.045   5.642   2.918  0.6309 -0.0590  0.0048
  190POPC   H6R25381  -0.150   5.673   2.903  1.3117  2.5263  0.0045
  190POPC   H6S25382   0.019   5.733   2.908  0.3290  0.1379 -0.1616
  190POPC   C2725383  -0.037   5.575   3.054  0.3870  0.5697 -0.6499
  190POPC   H7R25384   0.071   5.555   3.074 -0.0780  1.3141  3.3213
  190POPC   H7S25385  -0.077   5.471   3.054  0.5298  0.4962  0.9507
  190POPC   C2825386  -0.096   5.651   3.180 -0.3309  0.5695  0.6155
  190POPC   H8R25387  -0.205   5.663   3.161 -0.1094 -0.6191 -1.6773
  190POPC   H8S25388  -0.043   5.748   3.168 -1.3475  0.9282 -1.3416
  190POPC   C2925389  -0.064   5.588   3.311 -0.5909 -0.1415 -0.2017
  190POPC   H9125390   0.036   5.545   3.325 -0.4384 -0.8784 -2.9392
  190POPC  C21025391  -0.156   5.561   3.412 -0.2931  0.1243  0.0172
  190POPC  H10125392  -0.115   5.515   3.503  2.3125  1.6776 -0.2730
  190POPC  C21125393  -0.307   5.596   3.408 -0.4536 -0.0567  0.4739
  190POPC  H11R25394  -0.366   5.528   3.344  0.4799 -0.0019 -0.4709
  190POPC  H11S25395  -0.309   5.695   3.358  0.3548 -0.3434 -0.1534
  190POPC  C21225396  -0.384   5.606   3.543 -0.1694 -0.7601 -0.3302
  190POPC  H12R25397  -0.469   5.675   3.522  0.9239  0.6985 -0.1767
  190POPC  H12S25398  -0.319   5.667   3.609 -1.0704  0.1627 -0.2575
  190POPC  C21325399  -0.424   5.476   3.615 -0.2386 -0.7492  0.0668
  190POPC  H13R25400  -0.336   5.424   3.657  1.4738  2.4456  0.8276
  190POPC  H13S25401  -0.462   5.407   3.536  1.1344 -0.6357 -0.7243
  190POPC  C21425402  -0.527   5.503   3.730  0.4724 -0.5026  0.2355
  190POPC  H14R25403  -0.482   5.589   3.785  3.6808 -1.3983 -0.7768
  190POPC  H14S25404  -0.538   5.416   3.798 -0.7651  1.5431  2.8509
  190POPC  C21525405  -0.673   5.541   3.685  0.0456  0.1066 -0.6504
  190POPC  H15R25406  -0.712   5.465   3.615 -0.1284  0.0218 -0.4632
  190POPC  H15S25407  -0.681   5.635   3.626 -0.5126  0.9632  0.7282
  190POPC  C21625408  -0.756   5.553   3.804  0.1154 -0.8030 -0.0405
  190POPC  H16R25409  -0.847   5.615   3.791 -0.7219 -2.3299 -1.9765
  190POPC  H16S25410  -0.692   5.597   3.884 -2.3020  0.2643  1.4334
  190POPC  C21725411  -0.818   5.426   3.852  0.9216  0.0687 -0.2754
  190POPC  H17R25412  -0.745   5.352   3.892 -1.4868 -1.6334  1.2517
  190POPC  H17S25413  -0.869   5.364   3.775  0.4015 -2.2606  1.8389
  190POPC  C21825414  -0.915   5.445   3.974 -0.0769 -0.2968  0.0878
  190POPC  H18R25415  -0.841   5.484   4.047 -0.2440  2.3368 -1.0490
  190POPC  H18S25416  -0.958   5.348   4.006 -0.8273  0.2709  0.8554
  190POPC  H18T25417  -0.984   5.530   3.958 -0.2605 -0.6449 -1.0543
  190POPC   C3325418   0.333   5.012   2.376  0.5084 -0.2869 -0.3083
  190POPC   H3X25419   0.373   4.914   2.408  1.2017  0.1207  0.0852
  190POPC   H3Y25420   0.236   4.992   2.324  0.3774 -1.9918  0.5455
  190POPC   C3425421   0.321   5.116   2.482  0.1884 -0.5211 -0.3871
  190POPC   H4X25422   0.275   5.211   2.447 -0.8633 -1.5571 -1.9571
  190POPC   H4Y25423   0.426   5.120   2.516  0.2863 -0.4615 -0.6911
  190POPC   C3525424   0.236   5.072   2.607  0.0721  0.0909  0.5239
  190POPC   H5X25425   0.268   5.131   2.695 -1.0838 -1.8602  2.3734
  190POPC   H5Y25426   0.259   4.965   2.628  0.6605 -0.3941 -2.1784
  190POPC   C3625427   0.084   5.081   2.594 -0.5002 -0.4289  0.1464
  190POPC   H6X25428   0.058   5.013   2.511 -2.9467 -0.0788  0.5270
  190POPC   H6Y25429   0.062   5.183   2.556 -1.8213 -0.5097  0.6142
  190POPC   C3725430   0.015   5.056   2.726  0.5867 -0.3237  0.5072
  190POPC   H7X25431   0.043   4.954   2.761  1.1537 -0.6752 -0.9025
  190POPC   H7Y25432  -0.090   5.046   2.692 -0.4366 -0.0430  3.3610
  190POPC   C3825433   0.014   5.156   2.836 -0.5831  0.0905  0.4317
  190POPC   H8X25434  -0.080   5.215   2.829 -0.5077 -0.0062 -2.2936
  190POPC   H8Y25435   0.096   5.230   2.820 -0.9958  0.9438  2.0417
  190POPC   C3925436   0.023   5.094   2.973 -0.4138 -0.3391  0.0113
  190POPC   H9X25437   0.126   5.056   2.991 -0.3521  0.2125  0.8719
  190POPC   H9Y25438  -0.055   5.014   2.982  1.1301 -2.1388 -1.6995
  190POPC  C31025439   0.009   5.201   3.078  0.1296 -0.4881  0.4775
  190POPC  H10X25440  -0.095   5.241   3.078  0.5180  0.6599 -1.6177
  190POPC  H10Y25441   0.081   5.279   3.046 -0.0785  0.6257  2.5256
  190POPC  C31125442   0.040   5.156   3.218 -0.8353 -0.0090 -0.3952
  190POPC  H11X25443   0.144   5.191   3.233 -0.9532 -0.2240  1.0278
  190POPC  H11Y25444   0.045   5.046   3.209 -0.2873 -0.0033 -0.2077
  190POPC  C31225445  -0.057   5.199   3.333 -0.7709  0.1280  0.2715
  190POPC  H12X25446  -0.161   5.187   3.295 -1.0375 -0.9693  1.3021
  190POPC  H12Y25447  -0.040   5.307   3.356 -0.3366 -0.0378  0.7283
  190POPC  C31325448  -0.023   5.116   3.456 -0.1194 -0.0691  0.1617
  190POPC  H13X25449  -0.022   5.012   3.417 -0.3985 -0.1262  0.3011
  190POPC  H13Y25450  -0.103   5.122   3.533 -0.7726  1.1855 -0.5718
  190POPC  C31425451   0.109   5.147   3.522 -0.5136  0.0360  0.6227
  190POPC  H14X25452   0.189   5.139   3.446 -1.3261 -2.2347 -0.0819
  190POPC  H14Y25453   0.122   5.067   3.598  1.2111  0.3871  0.7206
  190POPC  C31525454   0.126   5.286   3.580 -0.3238 -0.4408  0.3911
  190POPC  H15X25455   0.054   5.291   3.664 -0.4806 -1.2067  0.3085
  190POPC  H15Y25456   0.099   5.364   3.506  2.1571 -1.2917 -1.5699
  190POPC  C31625457   0.272   5.320   3.613 -0.5295 -0.3089 -0.4662
  190POPC  H16X25458   0.325   5.234   3.659  0.5555  0.8741  0.5937
  190POPC  H16Y25459   0.281   5.403   3.687  2.2964 -0.3664 -0.6341
  190POPC  H16Z25460   0.325   5.339   3.517  1.1931  0.1203  0.5169
  191POPC     N25461   0.737   7.481   1.799  0.4564 -0.1957  0.2340
  191POPC   C1225462   0.872   7.431   1.740 -0.0028  0.2900 -0.4504
  191POPC  H12A25463   0.856   7.396   1.640  0.2171  0.2684 -0.4792
  191POPC  H12B25464   0.915   7.343   1.786  1.9843  0.7850 -1.2504
  191POPC   C1325465   0.750   7.485   1.945  0.3791  0.4692 -0.2944
  191POPC  H13A25466   0.828   7.556   1.966 -0.5395  1.8118 -1.3188
  191POPC  H13B25467   0.661   7.510   2.000  0.8863  1.1706  0.2153
  191POPC  H13C25468   0.780   7.389   1.985 -2.4814 -0.3603  0.1533
  191POPC   C1425469   0.700   7.614   1.745  0.2971 -0.6675 -0.3978
  191POPC  H14A25470   0.784   7.679   1.763 -0.4919 -0.0081  1.0994
  191POPC  H14B25471   0.694   7.612   1.637  2.3400  0.7156 -0.6043
  191POPC  H14C25472   0.614   7.657   1.796  1.2346 -0.3676  0.9613
  191POPC   C1525473   0.628   7.387   1.767  0.0991 -0.2950  0.4717
  191POPC  H15A25474   0.531   7.424   1.795 -0.8638 -0.8549 -1.8656
  191POPC  H15B25475   0.645   7.285   1.801  0.0835 -1.1039 -1.7786
  191POPC  H15C25476   0.628   7.372   1.660  1.3853 -0.3351  0.4674
  191POPC   C1125477   0.989   7.535   1.736  0.3984  0.8289  0.8782
  191POPC  H11A25478   0.971   7.626   1.673 -1.6547 -0.7619 -1.0132
  191POPC  H11B25479   1.068   7.479   1.683  0.7022  1.0508  1.0911
  191POPC     P25480   1.151   7.657   1.902  0.1596  0.1782  0.0229
  191POPC   O1325481   1.099   7.790   1.931  0.9129  0.5833  0.1215
  191POPC   O1425482   1.266   7.646   1.810 -0.4866  0.0203  0.2066
  191POPC   O1225483   1.042   7.550   1.861  0.5674 -0.2552  0.0779
  191POPC   O1125484   1.202   7.582   2.031  0.6919 -0.4793  0.2205
  191POPC    C125485   1.122   7.558   2.142  0.6508  0.3627 -0.0465
  191POPC    HA25486   1.106   7.449   2.149 -0.1170  0.4678 -0.0596
  191POPC    HB25487   1.021   7.601   2.121  0.5585  0.1055 -0.1241
  191POPC    C225488   1.184   7.607   2.276  0.1501  0.8853 -0.2008
  191POPC    HS25489   1.101   7.605   2.351 -0.5620  0.4500 -0.9845
  191POPC   O2125490   1.231   7.742   2.264 -0.0278  0.2725 -0.0625
  191POPC   C2125491   1.141   7.837   2.283  0.1506  0.6041 -0.3222
  191POPC   O2225492   1.024   7.826   2.324  0.2826 -0.1369 -0.2457
  191POPC   C2225493   1.218   7.969   2.279 -0.8497  0.5181  0.5591
  191POPC   H2R25494   1.143   8.042   2.242 -0.0349  1.2865  0.3849
  191POPC   H2S25495   1.296   7.961   2.200 -1.2363  0.0469  0.2136
  191POPC    C325496   1.300   7.517   2.332  0.3571 -0.4175  0.4950
  191POPC    HX25497   1.396   7.532   2.278  1.2607 -1.8047  1.6389
  191POPC    HY25498   1.270   7.410   2.333  0.1727 -0.3628  0.7451
  191POPC   O3125499   1.326   7.556   2.466 -0.9648 -0.1576 -0.1304
  191POPC   C3125500   1.434   7.491   2.521  0.2132 -0.0787  0.2925
  191POPC   O3225501   1.487   7.390   2.471  0.2080 -0.0613 -0.0212
  191POPC   C3225502   1.472   7.549   2.657  0.1679  0.4575 -0.4343
  191POPC   H2X25503   1.457   7.659   2.653  2.1081  0.7283 -1.9865
  191POPC   H2Y25504   1.581   7.525   2.654 -0.4840 -2.9327 -2.9545
  191POPC   C2325505   1.272   8.018   2.416  0.1006  0.0861 -0.6410
  191POPC   H3R25506   1.199   8.019   2.500  1.2093  0.4379  0.3374
  191POPC   H3S25507   1.314   8.120   2.420 -0.6058  0.3326  2.0535
  191POPC   C2425508   1.378   7.923   2.475  0.5430 -0.2672 -0.5319
  191POPC   H4R25509   1.338   7.820   2.484  2.3469 -1.2117 -2.5944
  191POPC   H4S25510   1.411   7.963   2.574 -0.1858 -0.3085 -0.2598
  191POPC   C2525511   1.500   7.908   2.379 -0.2860 -0.3297  0.3313
  191POPC   H5R25512   1.508   8.001   2.319 -2.6702 -0.3376 -0.0721
  191POPC   H5S25513   1.485   7.827   2.305  1.1447 -0.0131 -0.3507
  191POPC   C2625514   1.634   7.876   2.444 -0.1058 -0.3039 -0.4309
  191POPC   H6R25515   1.628   7.785   2.507  3.5862 -1.6970 -1.8414
  191POPC   H6S25516   1.667   7.961   2.508  1.4236 -2.3815  1.7111
  191POPC   C2725517   1.755   7.827   2.354 -0.0335 -0.3038  0.8260
  191POPC   H7R25518   1.781   7.921   2.301 -0.9709  0.2406  1.2952
  191POPC   H7S25519   1.709   7.759   2.279  0.5738  0.2411 -0.0556
  191POPC   C2825520   1.870   7.762   2.421 -0.5576 -0.1509  0.0232
  191POPC   H8R25521   1.934   7.724   2.338  1.1560 -0.1028  1.2761
  191POPC   H8S25522   1.825   7.677   2.476 -0.1126  0.3568  1.1829
  191POPC   C2925523   1.949   7.851   2.518 -0.1520  0.2188 -0.3802
  191POPC   H9125524   1.973   7.956   2.495  1.8141  0.6312  2.8616
  191POPC  C21025525   1.978   7.817   2.649  0.3833  0.6080  1.0367
  191POPC  H10125526   2.031   7.879   2.723  0.8868 -0.7945  1.8766
  191POPC  C21125527   1.947   7.684   2.721  0.0772 -0.2149  0.0635
  191POPC  H11R25528   2.027   7.658   2.794  1.1874  2.4851 -0.0845
  191POPC  H11S25529   1.949   7.598   2.650 -0.0594  0.8218 -1.2299
  191POPC  C21225530   1.815   7.685   2.796 -0.3996 -0.3338  0.2991
  191POPC  H12R25531   1.778   7.594   2.848 -1.8896 -0.0025 -0.1449
  191POPC  H12S25532   1.738   7.711   2.720  1.5376  0.6117 -1.4266
  191POPC  C21325533   1.809   7.787   2.912 -0.1386  0.0531  0.3082
  191POPC  H13R25534   1.825   7.892   2.879  3.2411 -0.1033  1.0402
  191POPC  H13S25535   1.896   7.767   2.978 -1.3480  0.2979  2.0348
  191POPC  C21425536   1.682   7.768   2.987 -0.0440 -0.0664 -0.6738
  191POPC  H14R25537   1.686   7.662   3.018  1.8512  0.2439  0.2981
  191POPC  H14S25538   1.588   7.785   2.930 -2.5600 -4.4658  1.6168
  191POPC  C21525539   1.679   7.844   3.116  0.0869 -0.4424 -0.1018
  191POPC  H15R25540   1.764   7.817   3.183  0.8733  0.4412 -0.7268
  191POPC  H15S25541   1.586   7.809   3.167  0.0838 -0.9066 -0.4168
  191POPC  C21625542   1.676   7.996   3.105 -0.4320 -0.6906  0.1034
  191POPC  H16R25543   1.595   8.019   3.032  1.6099  3.5175 -1.1239
  191POPC  H16S25544   1.770   8.029   3.056 -1.5597  3.2763  0.3101
  191POPC  C21725545   1.676   8.064   3.238 -0.4241  0.5190 -0.2837
  191POPC  H17R25546   1.747   8.017   3.310 -1.2925  1.5975  1.3576
  191POPC  H17S25547   1.579   8.040   3.286  0.5815  1.5965  2.4856
  191POPC  C21825548   1.673   8.215   3.250 -0.3434  0.2107  0.0943
  191POPC  H18R25549   1.776   8.249   3.225  0.2311 -0.9801  0.7715
  191POPC  H18S25550   1.648   8.229   3.358 -0.3969 -0.9268  0.2427
  191POPC  H18T25551   1.596   8.258   3.183 -0.6475  0.1517  0.4019
  191POPC   C3325552   1.413   7.476   2.780 -0.1115 -0.3097  0.4650
  191POPC   H3X25553   1.449   7.371   2.771  1.0743 -0.0618  1.8870
  191POPC   H3Y25554   1.302   7.486   2.777 -0.3540 -1.3996  2.9141
  191POPC   C3425555   1.437   7.525   2.918  0.0439 -0.3538 -0.6739
  191POPC   H4X25556   1.390   7.626   2.923  1.0280  0.1405 -0.9884
  191POPC   H4Y25557   1.546   7.547   2.922 -0.1017  0.4279 -0.7886
  191POPC   C3525558   1.384   7.432   3.025 -0.8835  0.1551  0.1390
  191POPC   H5X25559   1.431   7.335   2.997 -0.2954  0.0260  1.5185
  191POPC   H5Y25560   1.273   7.423   3.021 -0.9087 -0.5870  1.8358
  191POPC   C3625561   1.410   7.486   3.167 -0.3384 -0.6120 -0.1834
  191POPC   H6X25562   1.517   7.499   3.192 -0.1081  2.3414 -2.1474
  191POPC   H6Y25563   1.359   7.422   3.242 -1.0738 -0.3800 -0.4707
  191POPC   C3725564   1.346   7.629   3.194 -0.2794  0.6701  0.5353
  191POPC   H7X25565   1.241   7.635   3.158 -0.6336  0.6172  1.5157
  191POPC   H7Y25566   1.410   7.707   3.148  0.5867 -0.6761 -0.6418
  191POPC   C3825567   1.347   7.671   3.340 -0.3832  0.8595  0.8353
  191POPC   H8X25568   1.452   7.689   3.374  0.2711  3.0113 -1.9937
  191POPC   H8Y25569   1.286   7.595   3.393 -2.2955  1.6953 -0.0882
  191POPC   C3925570   1.275   7.807   3.352 -0.0892  0.3322  0.0071
  191POPC   H9X25571   1.166   7.806   3.329 -0.1478  2.3297  0.0741
  191POPC   H9Y25572   1.319   7.878   3.279 -0.6566  0.9655  0.2699
  191POPC  C31025573   1.282   7.870   3.490  0.6042 -0.3825 -0.0241
  191POPC  H10X25574   1.265   7.792   3.567 -0.3564 -0.9262 -0.7669
  191POPC  H10Y25575   1.201   7.945   3.503  0.8708 -0.3252  1.5696
  191POPC  C31125576   1.411   7.955   3.509  0.6008 -0.5251 -0.4466
  191POPC  H11X25577   1.410   8.024   3.422 -0.9469 -0.5949 -0.5179
  191POPC  H11Y25578   1.504   7.899   3.486  0.0302 -0.8345 -2.1353
  191POPC  C31225579   1.408   8.050   3.622  0.0510  0.6551 -0.0629
  191POPC  H12X25580   1.398   7.987   3.713 -1.4978  0.4500 -0.3422
  191POPC  H12Y25581   1.316   8.112   3.612  0.4740  1.2178 -0.5553
  191POPC  C31325582   1.534   8.134   3.617  0.2399  0.2910 -0.2038
  191POPC  H13X25583   1.523   8.209   3.536  1.3782  1.3724  0.5988
  191POPC  H13Y25584   1.620   8.069   3.589 -0.7229 -1.2297  0.2647
  191POPC  C31425585   1.562   8.211   3.749 -0.2130 -0.7509  0.2715
  191POPC  H14X25586   1.549   8.149   3.841 -3.5959 -1.4089 -0.4991
  191POPC  H14Y25587   1.491   8.293   3.771  0.3674 -0.3690  0.7377
  191POPC  C31525588   1.704   8.274   3.752  0.7501  0.6938  0.5555
  191POPC  H15X25589   1.717   8.340   3.663  2.1984  0.5420  0.6273
  191POPC  H15Y25590   1.774   8.187   3.753  1.2243  1.0499 -0.1702
  191POPC  C31625591   1.723   8.363   3.875  0.1920 -0.5129  0.6363
  191POPC  H16X25592   1.709   8.309   3.972 -0.8275  0.0971  0.8442
  191POPC  H16Y25593   1.653   8.448   3.883 -0.4770 -0.7597 -1.9314
  191POPC  H16Z25594   1.822   8.411   3.864 -0.8743  1.7311  0.3391
  192POPC     N25595   1.295   5.868   1.763 -0.1237  0.0070 -0.4930
  192POPC   C1225596   1.218   5.994   1.774  1.2734 -0.5473 -0.0418
  192POPC  H12A25597   1.127   5.964   1.824 -0.2385  0.8066 -1.8351
  192POPC  H12B25598   1.185   6.024   1.676  2.6726  0.3380 -0.2653
  192POPC   C1325599   1.224   5.779   1.660 -0.2077 -1.3246  0.0848
  192POPC  H13A25600   1.258   5.676   1.661 -0.4811 -1.4208  1.1952
  192POPC  H13B25601   1.118   5.784   1.677 -0.1059  1.8024  0.3862
  192POPC  H13C25602   1.225   5.825   1.563 -1.9600  0.2955  0.7797
  192POPC   C1425603   1.440   5.886   1.716 -0.1464 -0.3870 -0.3376
  192POPC  H14A25604   1.430   5.947   1.628 -1.0750 -0.6616 -0.4325
  192POPC  H14B25605   1.511   5.927   1.786  1.2599  0.6301 -2.2837
  192POPC  H14C25606   1.473   5.791   1.677 -0.4781 -0.6835  0.0796
  192POPC   C1525607   1.298   5.800   1.892 -0.3298  0.3825 -0.0183
  192POPC  H15A25608   1.340   5.872   1.961 -0.0888  2.0432 -1.8068
  192POPC  H15B25609   1.368   5.719   1.901 -0.0060  0.8411  2.0214
  192POPC  H15C25610   1.196   5.776   1.916 -1.4007  1.1744 -3.2370
  192POPC   C1125611   1.274   6.117   1.850 -0.2388  0.1968 -0.0931
  192POPC  H11A25612   1.218   6.208   1.818  0.4627  0.3430 -0.9363
  192POPC  H11B25613   1.377   6.128   1.811 -0.3457  1.6581 -0.0434
  192POPC     P25614   1.350   6.196   2.086 -0.0772 -0.0549 -0.2636
  192POPC   O1325615   1.310   6.333   2.052  0.1489  0.1136  0.4143
  192POPC   O1425616   1.492   6.166   2.083 -0.1664  0.0831 -0.1453
  192POPC   O1225617   1.257   6.105   1.996 -0.3899  0.3011 -0.1042
  192POPC   O1125618   1.301   6.181   2.236 -0.1185  0.6623  0.5327
  192POPC    C125619   1.217   6.073   2.272  0.8006  0.1568  0.0343
  192POPC    HA25620   1.258   5.981   2.225  0.6765 -0.0962  0.4100
  192POPC    HB25621   1.111   6.098   2.249  0.7950  3.0218  2.5840
  192POPC    C225622   1.219   6.056   2.432 -0.4403 -0.0599  0.2089
  192POPC    HS25623   1.159   6.140   2.474 -2.0294 -1.5121  0.9772
  192POPC   O2125624   1.349   6.055   2.480 -0.1504  0.8448  0.1895
  192POPC   C2125625   1.386   6.156   2.554 -1.0033 -0.4715 -0.0335
  192POPC   O2225626   1.317   6.259   2.575 -0.2055  0.8605  0.0986
  192POPC   C2225627   1.525   6.135   2.620  0.0329 -0.1523 -0.2997
  192POPC   H2R25628   1.606   6.145   2.545  0.1654  0.3330 -0.0920
  192POPC   H2S25629   1.528   6.038   2.676  1.1550  0.3549  0.5580
  192POPC    C325630   1.154   5.922   2.493 -1.1548 -0.0797 -0.2558
  192POPC    HX25631   1.235   5.846   2.489  0.8247  1.7935  1.7442
  192POPC    HY25632   1.070   5.887   2.430  0.0217  0.1775 -2.0325
  192POPC   O3125633   1.123   5.937   2.630 -0.0797 -0.2181  0.4839
  192POPC   C3125634   1.050   5.831   2.670 -0.6597  0.3679 -0.3621
  192POPC   O3225635   1.038   5.733   2.599 -0.5025  0.2065 -0.1833
  192POPC   C3225636   1.010   5.827   2.826  0.0613 -0.1110 -0.0794
  192POPC   H2X25637   0.971   5.927   2.855  0.7950 -0.7737  3.7379
  192POPC   H2Y25638   1.100   5.829   2.891  0.2651  0.7710 -0.3794
  192POPC   C2325639   1.562   6.251   2.718  0.2522  0.6076 -0.0056
  192POPC   H3R25640   1.479   6.281   2.785  0.2096  2.0100 -0.6569
  192POPC   H3S25641   1.582   6.346   2.665  2.3913 -0.7600 -1.8525
  192POPC   C2425642   1.683   6.214   2.804 -0.4380  0.3577  0.4534
  192POPC   H4R25643   1.654   6.125   2.864 -1.4705  0.8856  0.7584
  192POPC   H4S25644   1.700   6.310   2.858  0.1868  0.9347 -0.7274
  192POPC   C2525645   1.808   6.176   2.724  0.1947 -0.1203  0.2781
  192POPC   H5R25646   1.831   6.252   2.647  2.6476 -1.4608 -0.4390
  192POPC   H5S25647   1.808   6.085   2.661  1.4615  0.4807 -0.6327
  192POPC   C2625648   1.943   6.189   2.803  0.1190 -0.7444 -0.0435
  192POPC   H6R25649   1.925   6.158   2.908 -0.0671 -2.9846 -0.6929
  192POPC   H6S25650   1.975   6.295   2.809 -0.5314 -0.6329  2.5134
  192POPC   C2725651   2.043   6.106   2.733 -0.0834 -0.3867 -0.6275
  192POPC   H7R25652   2.031   6.121   2.624  1.5417 -0.4887 -0.8497
  192POPC   H7S25653   2.013   5.999   2.746  1.7127 -0.7304  1.3286
  192POPC   C2825654   2.192   6.113   2.779  0.5348 -0.1195  0.4370
  192POPC   H8R25655   2.261   6.048   2.721 -0.9565 -0.5789 -0.9063
  192POPC   H8S25656   2.179   6.071   2.881 -0.2215 -3.2925 -0.8555
  192POPC   C2925657   2.245   6.252   2.782 -0.0870  0.1480 -0.3171
  192POPC   H9125658   2.232   6.294   2.681 -3.3624  1.0163  0.3354
  192POPC  C21025659   2.260   6.328   2.897  0.4384 -0.1753  0.6035
  192POPC  H10125660   2.296   6.432   2.888  2.4556 -0.5791  2.9202
  192POPC  C21125661   2.234   6.292   3.036 -0.6722  0.5681 -0.2162
  192POPC  H11R25662   2.314   6.241   3.093 -0.2069 -0.0367 -1.3870
  192POPC  H11S25663   2.153   6.215   3.040 -1.7624  1.7237  1.7976
  192POPC  C21225664   2.194   6.405   3.130  0.2708  0.2767  0.3628
  192POPC  H12R25665   2.095   6.451   3.108  0.9916  1.3554 -0.8169
  192POPC  H12S25666   2.273   6.483   3.141 -0.3212  0.8561  0.5720
  192POPC  C21325667   2.173   6.355   3.269 -0.7933 -0.3671 -0.5246
  192POPC  H13R25668   2.261   6.295   3.303 -0.8854 -0.2388 -0.0548
  192POPC  H13S25669   2.082   6.290   3.270 -1.3060  0.2980  1.6102
  192POPC  C21425670   2.139   6.452   3.388  0.5718 -0.1249 -0.2389
  192POPC  H14R25671   2.218   6.528   3.405 -0.4161  0.8564  0.1117
  192POPC  H14S25672   2.132   6.382   3.474 -0.3688 -1.6612 -1.5095
  192POPC  C21525673   2.000   6.519   3.383 -0.5456  0.2122  0.7197
  192POPC  H15R25674   1.927   6.445   3.345  1.4249 -0.5145 -1.9171
  192POPC  H15S25675   2.010   6.591   3.299  0.3998 -1.1313 -0.3646
  192POPC  C21625676   1.960   6.591   3.514 -0.3799 -1.0109 -0.1546
  192POPC  H16R25677   1.876   6.662   3.499  0.3849 -0.4568 -2.1085
  192POPC  H16S25678   2.039   6.664   3.541 -2.3718  1.7402 -1.2767
  192POPC  C21725679   1.945   6.498   3.638 -0.4590 -0.0101 -0.3755
  192POPC  H17R25680   1.905   6.548   3.729 -2.8051 -2.6747  0.1761
  192POPC  H17S25681   2.047   6.467   3.670 -0.2787  0.7607 -0.1844
  192POPC  C21825682   1.851   6.374   3.620  0.3649 -0.3428 -0.2588
  192POPC  H18R25683   1.848   6.296   3.699  0.2301  0.8799  0.9860
  192POPC  H18S25684   1.874   6.331   3.520  0.4312  1.0790 -0.8763
  192POPC  H18T25685   1.751   6.422   3.621  0.6838  0.4261 -1.9721
  192POPC   C3325686   0.904   5.716   2.858  0.3562  0.0720  0.1374
  192POPC   H3X25687   0.834   5.712   2.772  1.0619 -0.6644 -0.4163
  192POPC   H3Y25688   0.850   5.739   2.952  0.3923 -2.5369  0.8787
  192POPC   C3425689   0.975   5.583   2.874 -0.0137  0.4808 -0.4233
  192POPC   H4X25690   1.051   5.579   2.955  1.0917 -0.6093 -1.4703
  192POPC   H4Y25691   1.036   5.555   2.786  2.2217  1.9903  0.5498
  192POPC   C3525692   0.876   5.470   2.898 -0.5684  0.2086 -0.1169
  192POPC   H5X25693   0.813   5.452   2.808  1.2604  2.4356 -1.9587
  192POPC   H5Y25694   0.819   5.509   2.985 -1.1394  1.9379 -1.2300
  192POPC   C3625695   0.933   5.332   2.948  1.1362  0.0458  0.0003
  192POPC   H6X25696   0.853   5.276   3.002  1.2249 -1.4712 -1.3505
  192POPC   H6Y25697   1.019   5.342   3.018  0.7781 -1.5422  0.7102
  192POPC   C3725698   0.984   5.244   2.827  0.4266  0.4739 -0.6512
  192POPC   H7X25699   0.911   5.248   2.743  1.5814 -1.1825 -1.8099
  192POPC   H7Y25700   0.994   5.141   2.867  1.2952 -0.0036 -2.0181
  192POPC   C3825701   1.126   5.272   2.777 -0.0065  0.2402 -0.1499
  192POPC   H8X25702   1.131   5.367   2.719 -0.4048  1.4574  1.7440
  192POPC   H8Y25703   1.143   5.182   2.713  0.6597 -0.7900  1.3932
  192POPC   C3925704   1.237   5.261   2.875  0.2878 -0.0838 -0.2172
  192POPC   H9X25705   1.228   5.324   2.966  0.8803 -1.5022  0.8656
  192POPC   H9Y25706   1.337   5.283   2.831  0.7104  0.9913  1.1846
  192POPC  C31025707   1.241   5.114   2.934 -0.8864 -0.2663  0.3919
  192POPC  H10X25708   1.256   5.041   2.852  2.3281  0.9425 -0.2146
  192POPC  H10Y25709   1.149   5.100   2.995 -0.4685  1.2621  1.4172
  192POPC  C31125710   1.341   5.098   3.047 -0.2698 -0.5623  0.5812
  192POPC  H11X25711   1.439   5.086   2.998 -2.1179 -2.5094 -3.0248
  192POPC  H11Y25712   1.318   5.001   3.095 -0.2559  0.2614  2.3613
  192POPC  C31225713   1.334   5.190   3.169  0.0488  0.2152  0.3369
  192POPC  H12X25714   1.231   5.199   3.208 -0.1369 -0.3487 -0.0087
  192POPC  H12Y25715   1.364   5.294   3.146 -2.7468  1.0770  0.2054
  192POPC  C31325716   1.428   5.143   3.286  0.6414  0.6043 -0.1867
  192POPC  H13X25717   1.529   5.114   3.249  0.4261  0.0105 -0.3275
  192POPC  H13Y25718   1.378   5.045   3.306 -0.0765  0.8551 -0.7076
  192POPC  C31425719   1.433   5.217   3.414 -0.2318 -0.0756 -0.3285
  192POPC  H14X25720   1.477   5.146   3.487  2.6031 -0.9289 -2.6639
  192POPC  H14Y25721   1.332   5.242   3.453 -1.0118  0.2559 -2.4405
  192POPC  C31525722   1.517   5.348   3.407 -0.2801 -0.3391 -0.2494
  192POPC  H15X25723   1.520   5.393   3.508 -0.1150 -4.7366  1.9157
  192POPC  H15Y25724   1.457   5.412   3.339 -0.1364 -2.2792 -2.3253
  192POPC  C31625725   1.660   5.334   3.348 -0.7475 -0.1029 -0.3368
  192POPC  H16X25726   1.731   5.415   3.374  0.8497 -1.4601 -0.2353
  192POPC  H16Y25727   1.662   5.330   3.237  2.1211  2.2083 -0.4941
  192POPC  H16Z25728   1.698   5.235   3.383  0.8607  0.8347  0.6686
  193POPC     N25729   1.565   0.064   1.406  0.3806 -0.6274 -0.3975
  193POPC   C1225730   1.438   0.078   1.487  0.1198 -0.3397 -0.4243
  193POPC  H12A25731   1.367   0.011   1.441 -1.1568  0.5783  0.1637
  193POPC  H12B25732   1.403   0.177   1.462  1.5379  0.4154  0.4114
  193POPC   C1325733   1.543   0.080   1.261  0.7703  0.5313 -0.9034
  193POPC  H13A25734   1.460   0.026   1.218 -0.1152 -0.2954  1.6376
  193POPC  H13B25735   1.527   0.184   1.239  1.1995  0.6891 -0.4931
  193POPC  H13C25736   1.632   0.056   1.205 -0.4087 -1.8085 -1.9240
  193POPC   C1425737   1.665   0.163   1.462 -1.2672  0.8474 -0.2978
  193POPC  H14A25738   1.732   0.219   1.398  1.2654 -0.1503  1.3546
  193POPC  H14B25739   1.610   0.231   1.526 -0.4077  0.9673  0.3366
  193POPC  H14C25740   1.730   0.109   1.529  0.9261  0.0868 -2.8493
  193POPC   C1525741   1.628  -0.066   1.429  0.2021 -0.5572 -0.4896
  193POPC  H15A25742   1.721  -0.073   1.376  0.9300 -4.7363  0.9777
  193POPC  H15B25743   1.578  -0.157   1.398 -0.0397 -0.8116  0.5744
  193POPC  H15C25744   1.647  -0.081   1.534  1.1078  0.5448 -0.4771
  193POPC   C1125745   1.439   0.080   1.641 -0.8112  0.6881  0.1222
  193POPC  H11A25746   1.506  -0.006   1.663 -1.8327 -1.0015 -2.7843
  193POPC  H11B25747   1.342   0.064   1.693 -0.5245 -0.4204  0.3311
  193POPC     P25748   1.406   0.333   1.708 -0.1656  0.4898  0.0757
  193POPC   O1325749   1.282   0.311   1.625 -0.0512  0.3094 -0.0877
  193POPC   O1425750   1.496   0.449   1.673 -0.3758  0.9404  0.3265
  193POPC   O1225751   1.501   0.200   1.695  0.5492  0.0618 -0.7433
  193POPC   O1125752   1.374   0.350   1.859 -0.0323 -0.2295 -0.1411
  193POPC    C125753   1.351   0.247   1.953 -0.0167 -0.8110  0.2337
  193POPC    HA25754   1.385   0.148   1.916  0.1176 -0.6203 -0.1630
  193POPC    HB25755   1.243   0.245   1.977  0.2737  1.0812  2.0601
  193POPC    C225756   1.429   0.267   2.090 -0.2710  0.6944 -0.3371
  193POPC    HS25757   1.386   0.195   2.163  0.7280  1.3224  0.8912
  193POPC   O2125758   1.425   0.397   2.144 -0.9225  0.1527 -0.3104
  193POPC   C2125759   1.304   0.439   2.178 -0.1005 -0.3715  0.0501
  193POPC   O2225760   1.199   0.384   2.165  0.3824 -0.5012 -0.7294
  193POPC   C2225761   1.310   0.588   2.212 -0.0260  1.0515 -0.7112
  193POPC   H2R25762   1.252   0.635   2.130 -0.0884 -0.7641 -1.7547
  193POPC   H2S25763   1.415   0.624   2.211  1.1000 -1.7910  1.2613
  193POPC    C325764   1.575   0.227   2.074  0.0832  0.6611 -0.0575
  193POPC    HX25765   1.620   0.303   2.005 -3.0620  0.2346 -2.8361
  193POPC    HY25766   1.570   0.125   2.031  2.3272 -0.2751  1.7188
  193POPC   O3125767   1.634   0.207   2.207 -0.4526  0.2455  0.0871
  193POPC   C3125768   1.740   0.278   2.224  0.2722 -0.4460  0.5241
  193POPC   O3225769   1.788   0.367   2.156 -0.2001  0.2661 -0.4248
  193POPC   C3225770   1.788   0.231   2.371 -0.0337  0.2651 -0.2020
  193POPC   H2X25771   1.866   0.307   2.393 -2.1764  1.6340  3.4774
  193POPC   H2Y25772   1.828   0.128   2.366 -1.4124 -0.4278  1.9994
  193POPC   C2325773   1.241   0.626   2.348 -0.1028 -0.1660  0.0874
  193POPC   H3R25774   1.131   0.611   2.353 -0.6008 -0.0674 -5.1869
  193POPC   H3S25775   1.255   0.736   2.345  0.8260 -0.2933 -0.8294
  193POPC   C2425776   1.323   0.577   2.466 -0.7024 -0.2947 -0.7315
  193POPC   H4R25777   1.430   0.604   2.454 -0.4519 -1.4771 -1.3525
  193POPC   H4S25778   1.309   0.468   2.477  0.2120 -0.1397  4.4753
  193POPC   C2525779   1.272   0.640   2.598 -0.5197 -0.2192  0.6891
  193POPC   H5R25780   1.164   0.616   2.608 -0.1025 -1.8135  1.7087
  193POPC   H5S25781   1.281   0.750   2.586  1.7346 -0.4475 -0.4600
  193POPC   C2625782   1.346   0.602   2.732 -0.6739  0.5861 -0.1567
  193POPC   H6R25783   1.327   0.494   2.753 -1.6482  0.7686 -0.0648
  193POPC   H6S25784   1.296   0.660   2.812  0.1239 -1.8375  2.2694
  193POPC   C2725785   1.495   0.628   2.737  0.1140  0.8329  0.6205
  193POPC   H7R25786   1.515   0.735   2.717  0.7450  0.2824 -2.0929
  193POPC   H7S25787   1.533   0.567   2.652 -2.5665  0.5630 -0.4959
  193POPC   C2825788   1.558   0.584   2.869  0.0669  0.9409  0.1761
  193POPC   H8R25789   1.668   0.581   2.853 -0.0724 -1.7079 -0.6861
  193POPC   H8S25790   1.524   0.481   2.890 -0.2319  1.1663  0.7987
  193POPC   C2925791   1.525   0.667   2.983  0.0780 -0.5526 -0.9847
  193POPC   H9125792   1.550   0.772   2.962 -1.6873 -0.1306 -1.1524
  193POPC  C21025793   1.505   0.634   3.113 -0.0530  0.0183  0.3107
  193POPC  H10125794   1.487   0.704   3.195 -0.5742  0.8521 -0.4968
  193POPC  C21125795   1.475   0.502   3.179  0.3358  0.0521  0.5119
  193POPC  H11R25796   1.558   0.448   3.229  1.1763  0.0752 -0.8152
  193POPC  H11S25797   1.440   0.432   3.100  0.3913  2.9337 -2.2902
  193POPC  C21225798   1.358   0.502   3.276  0.4182 -0.0109  0.1119
  193POPC  H12R25799   1.332   0.396   3.299 -2.0557  0.3673 -0.6038
  193POPC  H12S25800   1.270   0.549   3.227  0.7421 -0.0739 -0.5414
  193POPC  C21325801   1.379   0.571   3.410 -0.0882 -0.5112  0.2339
  193POPC  H13R25802   1.277   0.585   3.451 -1.3261 -1.6550 -2.2440
  193POPC  H13S25803   1.433   0.667   3.392  0.9954 -1.3103 -0.9081
  193POPC  C21425804   1.471   0.493   3.501  0.9106  0.0398 -0.1296
  193POPC  H14R25805   1.572   0.495   3.455  2.4477  1.2575  2.9409
  193POPC  H14S25806   1.442   0.386   3.507 -1.7082  0.6729 -0.1080
  193POPC  C21525807   1.493   0.545   3.645 -0.1007  0.3913 -0.3147
  193POPC  H15R25808   1.557   0.479   3.707  1.2739  0.9870 -1.0405
  193POPC  H15S25809   1.397   0.555   3.699 -0.1381 -1.0323 -0.0780
  193POPC  C21625810   1.569   0.680   3.653 -0.4136  0.3975 -0.2405
  193POPC  H16R25811   1.546   0.717   3.755 -1.9671 -1.3851  0.1197
  193POPC  H16S25812   1.512   0.752   3.591 -1.7947 -0.8548 -0.4663
  193POPC  C21725813   1.714   0.682   3.608 -0.4345 -1.0724  0.2123
  193POPC  H17R25814   1.764   0.779   3.631 -1.7941 -0.2658 -0.1602
  193POPC  H17S25815   1.702   0.666   3.498  0.4070  1.1138 -0.2496
  193POPC  C21825816   1.800   0.565   3.655 -0.0351 -0.8550  0.2502
  193POPC  H18R25817   1.789   0.545   3.764  2.9754 -0.6960  0.6690
  193POPC  H18S25818   1.907   0.577   3.628 -0.2707 -1.6602 -1.1240
  193POPC  H18T25819   1.753   0.476   3.609 -0.2063 -0.6336 -0.0108
  193POPC   C3325820   1.672   0.240   2.475  0.5337  0.2648 -0.2560
  193POPC   H3X25821   1.591   0.172   2.444  1.0944 -2.7872  3.9606
  193POPC   H3Y25822   1.617   0.336   2.470 -0.1415 -0.0689  0.4970
  193POPC   C3425823   1.714   0.206   2.619 -0.0210  0.2802 -0.3862
  193POPC   H4X25824   1.797   0.272   2.654  0.4606  0.0443 -1.0554
  193POPC   H4Y25825   1.752   0.102   2.619 -1.3294 -0.2053 -0.9384
  193POPC   C3525826   1.595   0.207   2.718  0.2084 -0.4649  0.1966
  193POPC   H5X25827   1.567   0.314   2.724 -0.6953 -0.6073 -1.1206
  193POPC   H5Y25828   1.635   0.178   2.818 -2.0617  0.1348  1.3594
  193POPC   C3625829   1.476   0.121   2.675 -0.4965 -0.0170 -0.0848
  193POPC   H6X25830   1.503   0.015   2.659  1.1722  0.1416  1.3273
  193POPC   H6Y25831   1.431   0.162   2.582  0.4129 -3.2855 -2.1068
  193POPC   C3725832   1.373   0.118   2.778 -0.2811  0.0356 -0.1178
  193POPC   H7X25833   1.284   0.080   2.722 -0.8800  1.4797 -0.1908
  193POPC   H7Y25834   1.338   0.216   2.817 -0.3422  0.9496 -2.3081
  193POPC   C3825835   1.410   0.027   2.899  0.1886  0.1006 -0.4742
  193POPC   H8X25836   1.459   0.087   2.979  0.0964 -0.9751  0.4098
  193POPC   H8Y25837   1.481  -0.048   2.859  1.1371  0.5426  0.3392
  193POPC   C3925838   1.294  -0.046   2.968  0.1033 -0.6189  0.2806
  193POPC   H9X25839   1.211   0.027   2.977  0.9507  0.9504 -3.0206
  193POPC   H9Y25840   1.329  -0.076   3.069 -0.8307 -0.2288  0.7409
  193POPC  C31025841   1.247  -0.153   2.876  0.3542 -0.4748 -0.1787
  193POPC  H10X25842   1.328  -0.226   2.860  0.0804 -1.0962  1.1640
  193POPC  H10Y25843   1.199  -0.110   2.785  1.4234  0.6202 -0.2475
  193POPC  C31125844   1.135  -0.237   2.941 -0.2954 -0.1410 -0.0478
  193POPC  H11X25845   1.043  -0.176   2.952 -2.6340 -2.7067 -3.3895
  193POPC  H11Y25846   1.174  -0.251   3.044 -0.0538  2.3922  0.2605
  193POPC  C31225847   1.094  -0.356   2.860 -0.2483  0.9152  0.3218
  193POPC  H12X25848   1.012  -0.413   2.910  2.2202 -4.3145 -0.9307
  193POPC  H12Y25849   1.172  -0.433   2.844  0.6440  2.0799 -1.2051
  193POPC  C31325850   1.040  -0.327   2.716 -0.0327 -0.3339  0.1605
  193POPC  H13X25851   1.128  -0.274   2.674  1.1135  0.3473  3.1397
  193POPC  H13Y25852   0.969  -0.242   2.721  3.8441  3.4650 -1.9449
  193POPC  C31425853   0.993  -0.448   2.633  0.0124  0.2965  0.3780
  193POPC  H14X25854   1.078  -0.520   2.635 -0.6022 -0.6429 -2.2962
  193POPC  H14Y25855   0.976  -0.413   2.529  1.0227  1.7496  0.6604
  193POPC  C31525856   0.854  -0.506   2.675 -0.8374  0.2131  0.0377
  193POPC  H15X25857   0.777  -0.427   2.669 -1.6580 -0.6162 -0.5946
  193POPC  H15Y25858   0.852  -0.510   2.786 -1.4849  1.1336  0.0603
  193POPC  C31625859   0.810  -0.637   2.615 -0.2034  0.8820  0.1730
  193POPC  H16X25860   0.791  -0.630   2.506 -0.6751  1.3513  0.2813
  193POPC  H16Y25861   0.718  -0.668   2.670  0.0174  0.1368  0.1319
  193POPC  H16Z25862   0.887  -0.716   2.628 -0.5813  0.7331  1.7310
  194POPC     N25863   7.934   6.292   1.637  0.6389 -0.7986 -0.1670
  194POPC   C1225864   7.785   6.306   1.671 -0.1964  0.5090  0.0992
  194POPC  H12A25865   7.728   6.325   1.582  0.3148  0.9007 -0.1469
  194POPC  H12B25866   7.780   6.382   1.748 -0.8559  1.8001 -1.1927
  194POPC   C1325867   7.981   6.426   1.595  0.1822 -0.3160 -0.0608
  194POPC  H13A25868   7.950   6.502   1.664  1.0758 -0.4871  0.5513
  194POPC  H13B25869   8.087   6.441   1.575 -0.1301  1.4504 -0.5929
  194POPC  H13C25870   7.934   6.454   1.502 -0.6373  1.8871  0.9524
  194POPC   C1425871   7.999   6.241   1.752 -0.4213  0.7858  0.2120
  194POPC  H14A25872   8.094   6.201   1.719 -0.2569  0.9230  0.5158
  194POPC  H14B25873   8.018   6.316   1.828  3.4261  0.3867 -0.1562
  194POPC  H14C25874   7.937   6.166   1.801 -0.0349 -0.5488 -1.2532
  194POPC   C1525875   7.951   6.201   1.519 -0.4127 -0.3060  0.9073
  194POPC  H15A25876   7.881   6.225   1.440 -1.1036 -0.8712  1.3405
  194POPC  H15B25877   7.923   6.102   1.551 -1.3243 -0.5108 -0.4126
  194POPC  H15C25878   8.051   6.213   1.481 -0.7176 -1.5003 -0.3637
  194POPC   C1125879   7.716   6.185   1.738  0.2740 -0.1635  0.1309
  194POPC  H11A25880   7.733   6.092   1.680 -1.8770 -0.7965  0.4220
  194POPC  H11B25881   7.607   6.211   1.736 -0.1002 -1.5518 -2.6577
  194POPC     P25882   7.708   6.072   1.972  0.3342 -0.1525  0.5421
  194POPC   O1325883   7.713   5.938   1.919 -0.1088 -0.6002  0.5608
  194POPC   O1425884   7.579   6.126   2.023 -0.1227  0.6426 -0.0373
  194POPC   O1225885   7.763   6.169   1.871  0.0996 -0.0379  0.1843
  194POPC   O1125886   7.808   6.092   2.090 -0.0428 -0.3512  0.5232
  194POPC    C125887   7.879   5.980   2.153  0.4464  0.3306  0.3589
  194POPC    HA25888   7.979   5.968   2.106  0.1735  0.8967 -0.3808
  194POPC    HB25889   7.822   5.885   2.142  1.3759 -0.0694 -1.5394
  194POPC    C225890   7.888   6.005   2.306 -0.0912 -0.2221 -0.9855
  194POPC    HS25891   7.780   6.017   2.330  0.0088  0.9679 -1.0841
  194POPC   O2125892   7.959   6.123   2.352 -0.2615  0.2176 -0.1902
  194POPC   C2125893   8.086   6.137   2.314 -0.0562 -0.9892  0.2198
  194POPC   O2225894   8.152   6.057   2.249  0.2261  0.1701 -0.2267
  194POPC   C2225895   8.133   6.273   2.359  0.0833  0.9942  0.9053
  194POPC   H2R25896   8.052   6.317   2.422 -0.6425  1.0089 -0.0066
  194POPC   H2S25897   8.152   6.339   2.271 -0.4667  0.8192  0.6483
  194POPC    C325898   7.938   5.882   2.379  0.6611 -0.5216 -0.0046
  194POPC    HX25899   8.030   5.839   2.333 -0.2881  0.2828 -2.8841
  194POPC    HY25900   7.850   5.815   2.369 -2.4976  2.8531  2.2450
  194POPC   O3125901   7.976   5.914   2.519  0.1918  0.2793 -0.2439
  194POPC   C3125902   7.884   5.961   2.604 -1.0425  0.0072 -0.2429
  194POPC   O3225903   7.770   5.967   2.578  0.6230  0.2933 -0.1933
  194POPC   C3225904   7.951   5.987   2.743  0.1406 -0.4746  0.2951
  194POPC   H2X25905   7.998   6.087   2.730 -0.1048 -0.4405 -0.4182
  194POPC   H2Y25906   8.043   5.927   2.763  1.7337  2.0475  0.9108
  194POPC   C2325907   8.265   6.252   2.439 -0.4616 -0.1265  0.3891
  194POPC   H3R25908   8.319   6.348   2.426 -0.9779 -0.1212 -2.2148
  194POPC   H3S25909   8.339   6.180   2.397  2.7225  2.3943  1.2403
  194POPC   C2425910   8.251   6.231   2.594 -0.3405 -0.2172 -0.2154
  194POPC   H4R25911   8.350   6.219   2.642  0.6399 -3.1869 -2.6063
  194POPC   H4S25912   8.210   6.128   2.602  0.5459 -0.6278 -0.7849
  194POPC   C2525913   8.177   6.340   2.663  0.2513 -0.6851 -0.5741
  194POPC   H5R25914   8.067   6.324   2.658  0.3129 -3.0289  2.6842
  194POPC   H5S25915   8.192   6.440   2.617 -1.7051 -0.9006 -1.8042
  194POPC   C2625916   8.204   6.356   2.812  0.1521  0.0353 -0.5909
  194POPC   H6R25917   8.301   6.409   2.824  1.1207 -1.3787 -1.7334
  194POPC   H6S25918   8.220   6.250   2.844 -1.6476 -0.4454 -1.1723
  194POPC   C2725919   8.094   6.431   2.873  0.3369 -0.1323 -0.8935
  194POPC   H7R25920   7.996   6.384   2.847 -0.2141  0.3989  0.1571
  194POPC   H7S25921   8.099   6.528   2.818 -2.3453  0.3943 -0.3844
  194POPC   C2825922   8.104   6.450   3.029 -0.2699 -0.2769  0.5571
  194POPC   H8R25923   8.128   6.350   3.071 -0.1263 -0.7350 -0.5685
  194POPC   H8S25924   8.004   6.477   3.069 -0.6313 -0.7553 -0.0043
  194POPC   C2925925   8.189   6.562   3.073 -0.5727  0.7318  0.1288
  194POPC   H9125926   8.288   6.575   3.026 -0.6736  0.1975 -0.2401
  194POPC  C21025927   8.164   6.650   3.174 -0.1478  0.1773 -0.3538
  194POPC  H10125928   8.242   6.724   3.200 -1.0053  0.7660  0.6581
  194POPC  C21125929   8.036   6.659   3.256  0.3292 -0.7045  0.5559
  194POPC  H11R25930   7.951   6.626   3.192 -0.7001  3.7409 -0.7949
  194POPC  H11S25931   8.020   6.767   3.276  0.1021 -0.7879  0.8222
  194POPC  C21225932   8.033   6.560   3.376  0.3760  0.0028  0.0739
  194POPC  H12R25933   8.120   6.562   3.445 -0.8281 -3.3574  1.9254
  194POPC  H12S25934   8.030   6.458   3.332  1.3251  0.3155 -0.7411
  194POPC  C21325935   7.902   6.581   3.446  0.0455 -0.1616 -0.5719
  194POPC  H13R25936   7.827   6.583   3.365  2.7040  0.1936 -3.2164
  194POPC  H13S25937   7.900   6.679   3.497 -1.4332 -0.7539  0.5761
  194POPC  C21425938   7.884   6.467   3.544 -0.4412  0.2232  0.8884
  194POPC  H14R25939   7.986   6.441   3.578  1.5547  2.7638 -2.5160
  194POPC  H14S25940   7.842   6.378   3.494  2.7013 -0.8246 -0.0918
  194POPC  C21525941   7.788   6.490   3.658  0.4041 -0.1962 -0.2236
  194POPC  H15R25942   7.696   6.542   3.621  1.6481  2.3758  0.0329
  194POPC  H15S25943   7.838   6.559   3.729 -0.0195 -1.4831  1.3821
  194POPC  C21625944   7.744   6.360   3.728  0.0947 -0.8718  0.3706
  194POPC  H16R25945   7.709   6.285   3.654  0.1334  0.1681 -0.7326
  194POPC  H16S25946   7.654   6.385   3.788  0.0783 -0.6857  0.2657
  194POPC  C21725947   7.857   6.288   3.809 -0.5780 -0.1902 -0.7269
  194POPC  H17R25948   7.920   6.356   3.870  0.6333  0.0924 -2.2427
  194POPC  H17S25949   7.930   6.247   3.736 -2.2228  0.1295 -2.6295
  194POPC  C21825950   7.817   6.160   3.883  0.0510 -0.2296 -0.0793
  194POPC  H18R25951   7.784   6.084   3.810 -0.1324 -1.7660  1.5306
  194POPC  H18S25952   7.741   6.195   3.958  0.1790  0.6049 -0.3289
  194POPC  H18T25953   7.903   6.108   3.931  2.7501  2.7456 -1.3298
  194POPC   C3325954   7.850   5.982   2.854  0.2199 -1.0383  0.0114
  194POPC   H3X25955   7.809   5.879   2.858 -0.5701 -0.7402 -0.3664
  194POPC   H3Y25956   7.759   6.044   2.842  0.5664 -0.7234 -1.1513
  194POPC   C3425957   7.930   6.002   2.982  0.1191  0.1991  0.2892
  194POPC   H4X25958   7.998   6.089   2.981 -0.0482  0.3468 -1.5469
  194POPC   H4Y25959   7.984   5.907   3.004 -1.1710 -0.7629 -0.5581
  194POPC   C3525960   7.830   6.015   3.099  0.3929  0.4754  0.5138
  194POPC   H5X25961   7.747   5.941   3.089 -0.9969  2.0811 -0.5152
  194POPC   H5Y25962   7.773   6.110   3.092 -0.2282  0.0595 -0.2420
  194POPC   C3625963   7.905   5.998   3.229 -0.3413  0.2219 -0.2382
  194POPC   H6X25964   7.988   6.072   3.236 -0.3178  0.4167 -2.0683
  194POPC   H6Y25965   7.943   5.895   3.215  0.6890  0.5596 -0.0383
  194POPC   C3725966   7.811   6.000   3.353  0.1197  0.7635 -0.0327
  194POPC   H7X25967   7.760   5.903   3.373  0.1591  1.0006  1.3335
  194POPC   H7Y25968   7.736   6.079   3.330 -0.6882  0.2452  0.7336
  194POPC   C3825969   7.881   6.045   3.476 -0.0781  0.2769  0.5408
  194POPC   H8X25970   7.812   6.070   3.560  0.1934 -0.8261  1.1063
  194POPC   H8Y25971   7.919   6.147   3.453 -0.9674  0.2721 -1.0790
  194POPC   C3925972   7.989   5.945   3.507  0.0793  0.2596  0.4162
  194POPC   H9X25973   8.067   5.951   3.428 -1.0974 -0.4353 -0.8284
  194POPC   H9Y25974   7.947   5.843   3.517  0.8788 -0.4199 -2.3959
  194POPC  C31025975   8.068   5.971   3.638  0.1202  0.8213 -0.2605
  194POPC  H10X25976   7.987   5.981   3.714 -1.0637 -1.6572 -1.0994
  194POPC  H10Y25977   8.126   6.066   3.632  1.5331 -0.0616 -1.2446
  194POPC  C31125978   8.161   5.856   3.668  0.2565 -0.2914 -0.2193
  194POPC  H11X25979   8.117   5.770   3.724  2.4952  0.4741  3.0221
  194POPC  H11Y25980   8.235   5.904   3.736  1.5511 -1.7585 -0.5317
  194POPC  C31225981   8.246   5.805   3.553  0.0563  0.0712  0.6203
  194POPC  H12X25982   8.262   5.889   3.482 -0.1130 -1.7420 -1.6715
  194POPC  H12Y25983   8.180   5.728   3.508  0.0969  1.0656 -1.2556
  194POPC  C31325984   8.387   5.753   3.588  0.1104  0.0417 -0.4115
  194POPC  H13X25985   8.420   5.684   3.508 -0.3148 -0.2272 -0.3577
  194POPC  H13Y25986   8.380   5.693   3.682  0.5162 -0.5568 -0.7572
  194POPC  C31425987   8.488   5.870   3.613  0.3375  0.3056  0.1691
  194POPC  H14X25988   8.458   5.916   3.709  2.3112 -0.4763  1.2279
  194POPC  H14Y25989   8.491   5.944   3.531  2.5386 -0.1200 -0.1867
  194POPC  C31525990   8.634   5.821   3.633 -0.0135  0.3410  0.0160
  194POPC  H15X25991   8.703   5.907   3.630 -0.1072  0.3899 -1.4378
  194POPC  H15Y25992   8.652   5.756   3.545 -0.8490 -0.9742  0.7807
  194POPC  C31625993   8.666   5.748   3.768  0.1358 -0.3375 -0.0067
  194POPC  H16X25994   8.775   5.728   3.773  0.7187  2.1542 -0.8904
  194POPC  H16Y25995   8.622   5.646   3.763 -0.1778 -0.1670 -1.0940
  194POPC  H16Z25996   8.634   5.810   3.855  0.8026 -0.2422  0.1740
  195POPC     N25997   1.200   6.553   2.313  0.4147  0.0051 -0.2810
  195POPC   C1225998   1.074   6.466   2.322 -0.3197 -0.3445  0.4080
  195POPC  H12A25999   1.069   6.404   2.409 -1.8524 -0.7980  0.0217
  195POPC  H12B26000   1.088   6.406   2.233  5.6398  0.4496  0.3949
  195POPC   C1326001   1.225   6.593   2.172  0.4346 -0.3534  0.0247
  195POPC  H13A26002   1.148   6.647   2.119  2.1337  2.0243 -0.1857
  195POPC  H13B26003   1.310   6.659   2.174 -0.7527  1.3218 -1.7032
  195POPC  H13C26004   1.230   6.505   2.109 -1.4383 -1.6618  1.5700
  195POPC   C1426005   1.175   6.685   2.384 -1.0439 -0.0747  0.3777
  195POPC  H14A26006   1.148   6.675   2.488 -2.6323 -0.9702 -0.0829
  195POPC  H14B26007   1.263   6.747   2.384 -1.4191  0.4683 -0.2949
  195POPC  H14C26008   1.102   6.742   2.329 -0.4274 -0.8491 -1.3140
  195POPC   C1526009   1.320   6.480   2.367  0.1997  0.3717  0.7860
  195POPC  H15A26010   1.335   6.392   2.306  0.4370 -0.6638  2.2690
  195POPC  H15B26011   1.311   6.434   2.464  0.5635  1.7525  1.5068
  195POPC  H15C26012   1.408   6.543   2.369  0.4001  0.3802 -2.6420
  195POPC   C1126013   0.940   6.541   2.303  0.0328  0.6214  0.1994
  195POPC  H11A26014   0.925   6.617   2.383 -0.4075  2.6091 -1.6945
  195POPC  H11B26015   0.858   6.466   2.305  0.7388 -0.1889 -0.4932
  195POPC     P26016   0.822   6.586   2.071 -0.0968  0.1717 -0.1640
  195POPC   O1326017   0.808   6.442   2.044 -0.1676  0.6700  0.3515
  195POPC   O1426018   0.846   6.670   1.954  0.0518  0.3237  0.0090
  195POPC   O1226019   0.939   6.617   2.178  0.1171  0.0039  0.0896
  195POPC   O1126020   0.699   6.631   2.148 -0.8726 -0.3576 -0.0722
  195POPC    C126021   0.692   6.762   2.196  0.8360 -0.6500  0.3965
  195POPC    HA26022   0.719   6.838   2.119  0.9201 -2.1493 -1.1012
  195POPC    HB26023   0.768   6.774   2.276  1.9555  1.2705 -0.8809
  195POPC    C226024   0.552   6.801   2.243 -0.5191 -0.4208  0.3577
  195POPC    HS26025   0.551   6.908   2.270 -2.9800 -0.0372 -0.9826
  195POPC   O2126026   0.505   6.719   2.354 -0.0014  0.4218  0.4648
  195POPC   C2126027   0.561   6.746   2.468  0.7875  0.0726 -0.4162
  195POPC   O2226028   0.658   6.820   2.482 -0.4803  0.4849 -0.1136
  195POPC   C2226029   0.481   6.674   2.573 -0.5028 -0.6003  0.2451
  195POPC   H2R26030   0.420   6.596   2.522 -0.0854 -0.7055 -0.0963
  195POPC   H2S26031   0.421   6.760   2.609  1.3268  0.8316  0.0038
  195POPC    C326032   0.450   6.778   2.124 -0.5823 -0.8985  0.4013
  195POPC    HX26033   0.461   6.673   2.090  1.0036 -0.9019  0.8351
  195POPC    HY26034   0.486   6.838   2.038 -1.5807  1.1871  1.3563
  195POPC   O3126035   0.313   6.833   2.133 -0.2040  0.4618  0.1517
  195POPC   C3126036   0.221   6.736   2.123  0.7892 -0.5778  0.7706
  195POPC   O3226037   0.231   6.620   2.092  0.3279 -0.0847 -0.5527
  195POPC   C3226038   0.083   6.802   2.149 -0.1920 -0.3773  0.0534
  195POPC   H2X26039   0.019   6.792   2.059 -1.2134  0.4427  0.6637
  195POPC   H2Y26040   0.082   6.912   2.163 -0.1447  0.0465 -2.8161
  195POPC   C2326041   0.569   6.620   2.683 -0.2237  0.7279  0.2740
  195POPC   H3R26042   0.512   6.605   2.777 -2.3718  0.8119 -0.9616
  195POPC   H3S26043   0.649   6.691   2.714  1.2669 -0.2455 -1.2258
  195POPC   C2426044   0.649   6.499   2.623  0.1900  0.1428  0.4484
  195POPC   H4R26045   0.682   6.534   2.523  1.2807 -0.1872  0.6763
  195POPC   H4S26046   0.577   6.415   2.623 -0.3849  0.6304  0.6136
  195POPC   C2526047   0.779   6.459   2.698 -0.4049 -0.0222  0.1636
  195POPC   H5R26048   0.751   6.441   2.804 -1.4544 -0.8454 -0.2227
  195POPC   H5S26049   0.853   6.540   2.685  0.5441 -1.2773 -3.4463
  195POPC   C2626050   0.844   6.335   2.632 -0.1106  0.8033  0.0427
  195POPC   H6R26051   0.842   6.353   2.523  1.1302 -0.1890 -0.1698
  195POPC   H6S26052   0.785   6.243   2.650 -3.4175  2.7425 -0.1434
  195POPC   C2726053   0.987   6.339   2.686 -0.3857 -1.0834  0.0713
  195POPC   H7R26054   1.029   6.429   2.636  0.8411 -1.6565  0.0358
  195POPC   H7S26055   1.037   6.246   2.652  1.6830 -0.4328  1.1445
  195POPC   C2826056   1.019   6.353   2.833 -0.0960  0.0424 -0.1941
  195POPC   H8R26057   0.975   6.445   2.877  0.0692 -0.1765  0.4487
  195POPC   H8S26058   1.130   6.363   2.831 -0.1798  1.0970 -0.1224
  195POPC   C2926059   0.980   6.225   2.903  0.0672 -0.4026 -0.2354
  195POPC   H9126060   0.871   6.207   2.908 -0.0206 -0.1802 -1.1361
  195POPC  C21026061   1.065   6.143   2.968 -0.6406  0.4042  0.4364
  195POPC  H10126062   1.022   6.055   3.018  2.2653 -0.7032  1.1408
  195POPC  C21126063   1.218   6.154   2.977 -0.0140 -0.0219 -0.4165
  195POPC  H11R26064   1.268   6.240   2.927 -1.3439  1.3807  0.5704
  195POPC  H11S26065   1.267   6.066   2.930  0.1974  0.4006 -1.0004
  195POPC  C21226066   1.268   6.162   3.124 -0.1054 -0.2197  0.0176
  195POPC  H12R26067   1.377   6.187   3.128 -0.4032  1.4398 -1.2276
  195POPC  H12S26068   1.248   6.067   3.177  1.4022  0.0690  1.1768
  195POPC  C21326069   1.202   6.279   3.207  0.0405 -0.6656 -0.2366
  195POPC  H13R26070   1.093   6.262   3.213 -0.2313  0.8425 -0.5073
  195POPC  H13S26071   1.218   6.371   3.147  0.8635  0.6802  1.9415
  195POPC  C21426072   1.259   6.294   3.353  0.2796 -0.2674  0.6887
  195POPC  H14R26073   1.368   6.273   3.352  0.4012  0.3284  1.0693
  195POPC  H14S26074   1.211   6.219   3.419  1.6696 -0.8911  1.0454
  195POPC  C21526075   1.241   6.441   3.406 -0.1976 -0.0723 -0.2337
  195POPC  H15R26076   1.133   6.467   3.403 -0.7506 -2.1106  0.4394
  195POPC  H15S26077   1.303   6.505   3.340 -0.1427  0.1992  0.0778
  195POPC  C21626078   1.276   6.455   3.561 -0.2819  0.2315  0.0001
  195POPC  H16R26079   1.373   6.508   3.564 -1.5417  3.2085 -3.9514
  195POPC  H16S26080   1.296   6.351   3.595  0.1743  0.7217  1.3019
  195POPC  C21726081   1.176   6.541   3.648  0.1652 -1.3542  0.6396
  195POPC  H17R26082   1.227   6.578   3.739  0.9070  2.5538 -1.1294
  195POPC  H17S26083   1.080   6.494   3.677 -2.3284  2.2115 -1.0368
  195POPC  C21826084   1.129   6.662   3.565 -0.0416 -0.0969  0.5747
  195POPC  H18R26085   1.065   6.631   3.480  0.4670  1.3407 -0.3871
  195POPC  H18S26086   1.210   6.733   3.534  0.2426 -1.1745 -1.3462
  195POPC  H18T26087   1.056   6.721   3.624 -1.2432 -2.7469  1.8974
  195POPC   C3326088   0.012   6.731   2.264 -0.1979  0.1035 -0.9414
  195POPC   H3X26089   0.000   6.623   2.239  3.3900 -0.6573  0.1014
  195POPC   H3Y26090  -0.087   6.781   2.265 -0.6684 -0.7791  0.3086
  195POPC   C3426091   0.088   6.744   2.394  0.4069 -0.0129 -0.2280
  195POPC   H4X26092   0.194   6.758   2.363 -0.1675  0.6605 -2.0249
  195POPC   H4Y26093   0.075   6.658   2.463  0.3515 -0.9002 -1.3251
  195POPC   C3526094   0.033   6.866   2.472  0.4056 -0.2594 -0.4480
  195POPC   H5X26095  -0.076   6.849   2.483  0.6653 -1.4508  0.4354
  195POPC   H5Y26096   0.046   6.969   2.431 -1.0145  0.9969  2.0163
  195POPC   C3626097   0.073   6.855   2.619 -0.3103  0.4303  0.0540
  195POPC   H6X26098   0.179   6.825   2.632 -0.4252  0.9841  3.2201
  195POPC   H6Y26099   0.005   6.777   2.660 -0.0238 -0.3995 -1.0197
  195POPC   C3726100   0.047   6.978   2.706  0.5628  0.3418  0.4072
  195POPC   H7X26101  -0.053   7.023   2.684  1.1981  0.5488 -2.4791
  195POPC   H7Y26102   0.114   7.062   2.679  0.0573  0.6412  0.0528
  195POPC   C3826103   0.044   6.941   2.851 -0.4472  0.3982 -0.5748
  195POPC   H8X26104   0.147   6.904   2.871 -0.6881  1.3881  3.2319
  195POPC   H8Y26105  -0.032   6.868   2.888  0.5827 -0.5410 -0.2458
  195POPC   C3926106   0.043   7.064   2.934 -0.1357 -0.3364 -0.7133
  195POPC   H9X26107  -0.051   7.124   2.932 -0.4685 -0.8420 -0.3558
  195POPC   H9Y26108   0.115   7.146   2.912  1.1333 -0.9258  1.0359
  195POPC  C31026109   0.066   7.026   3.082  0.8257  0.0563  0.3786
  195POPC  H10X26110   0.174   6.999   3.090  1.0075  0.4851 -0.5333
  195POPC  H10Y26111   0.003   6.942   3.120 -1.3091  1.0634 -0.7513
  195POPC  C31126112   0.049   7.161   3.170 -0.0652  0.9425 -0.7314
  195POPC  H11X26113  -0.061   7.176   3.174 -0.4307 -1.3042 -1.2044
  195POPC  H11Y26114   0.086   7.254   3.120  0.2862  2.3702  1.9785
  195POPC  C31226115   0.112   7.140   3.305 -0.1664  0.2166 -1.0963
  195POPC  H12X26116   0.222   7.145   3.291  0.5996  1.0572  3.4421
  195POPC  H12Y26117   0.095   7.038   3.347 -1.4044  1.1274  0.7720
  195POPC  C31326118   0.078   7.254   3.394  0.5202 -0.3758  0.6284
  195POPC  H13X26119   0.088   7.355   3.348 -0.8349  0.3355  1.8248
  195POPC  H13Y26120   0.149   7.253   3.480 -0.0611 -2.6460  1.1333
  195POPC  C31426121  -0.064   7.247   3.455 -0.1656 -0.5085  0.1974
  195POPC  H14X26122  -0.106   7.145   3.445  0.6324 -0.8612  0.3401
  195POPC  H14Y26123  -0.137   7.311   3.402 -1.1737  0.9567  3.1442
  195POPC  C31526124  -0.077   7.291   3.607 -0.1147 -1.2222 -0.4453
  195POPC  H15X26125  -0.186   7.294   3.627  0.2616  1.5944  1.8770
  195POPC  H15Y26126  -0.044   7.396   3.623 -0.3854 -1.5041  2.6761
  195POPC  C31626127   0.007   7.205   3.708  0.4174  0.2389 -0.2083
  195POPC  H16X26128   0.117   7.203   3.693  0.4753 -2.4105  0.0898
  195POPC  H16Y26129  -0.030   7.101   3.695  2.0956 -0.5094  0.7213
  195POPC  H16Z26130  -0.016   7.241   3.811 -0.3324  2.8169 -1.1778
  196POPC     N26131   7.717   7.058   1.812  1.0399  0.3422  0.7070
  196POPC   C1226132   7.611   6.956   1.840  0.1014 -0.2083 -0.4386
  196POPC  H12A26133   7.601   6.889   1.756 -1.4667 -1.7096  0.8746
  196POPC  H12B26134   7.516   7.006   1.855  0.1659 -0.1915 -0.0653
  196POPC   C1326135   7.680   7.144   1.698 -0.0888 -0.5882  0.3165
  196POPC  H13A26136   7.650   7.092   1.609 -1.9634  2.6152 -1.0935
  196POPC  H13B26137   7.593   7.202   1.727 -0.8622 -0.7608 -1.5613
  196POPC  H13C26138   7.754   7.220   1.676 -0.1154 -0.9217 -1.0101
  196POPC   C1426139   7.732   7.141   1.935 -0.0614 -0.4167 -0.5381
  196POPC  H14A26140   7.783   7.092   2.016 -0.2552  2.5108  1.5351
  196POPC  H14B26141   7.795   7.228   1.928 -1.1743  0.5765  1.1273
  196POPC  H14C26142   7.632   7.159   1.974 -0.1043 -0.6174 -0.5544
  196POPC   C1526143   7.856   7.005   1.773  0.4115  0.4286 -0.2983
  196POPC  H15A26144   7.851   6.978   1.669  2.9035  3.2599 -1.3045
  196POPC  H15B26145   7.880   6.921   1.836  1.1495  0.4107 -0.6013
  196POPC  H15C26146   7.926   7.083   1.801 -0.9218  0.7889  2.3596
  196POPC   C1126147   7.629   6.864   1.965  0.3616  0.5170 -0.7380
  196POPC  H11A26148   7.540   6.797   1.966  0.6758  0.0791  0.5763
  196POPC  H11B26149   7.621   6.934   2.052  1.2824 -1.2552  0.8398
  196POPC     P26150   7.776   6.666   1.883  0.0061  0.2238 -0.1289
  196POPC   O1326151   7.917   6.669   1.835 -0.3350  0.4148 -0.3276
  196POPC   O1426152   7.662   6.658   1.784 -0.0036 -0.2228 -0.3133
  196POPC   O1226153   7.750   6.793   1.967 -0.4144 -0.0632 -0.7296
  196POPC   O1126154   7.770   6.541   1.975 -0.2424  0.3693 -0.0050
  196POPC    C126155   7.642   6.504   2.041  0.2624  0.3766  0.1825
  196POPC    HA26156   7.642   6.394   2.058 -2.6232  0.1004 -1.0580
  196POPC    HB26157   7.555   6.523   1.974  0.5937 -0.9568 -0.6762
  196POPC    C226158   7.621   6.574   2.172 -0.1111  0.3734  0.1549
  196POPC    HS26159   7.622   6.684   2.159  0.0206  0.2135 -1.3534
  196POPC   O2126160   7.722   6.536   2.269  0.2737  0.5043  0.6186
  196POPC   C2126161   7.764   6.631   2.351  0.0949  0.1350  0.0717
  196POPC   O2226162   7.738   6.747   2.354 -0.4666  0.0410  0.3136
  196POPC   C2226163   7.861   6.564   2.453  0.4308 -0.0178  0.1091
  196POPC   H2R26164   7.955   6.622   2.452 -1.0048  2.7085  3.0877
  196POPC   H2S26165   7.874   6.456   2.431  1.6362 -0.2832  1.8579
  196POPC    C326166   7.479   6.552   2.245  0.0059  0.5347 -0.2642
  196POPC    HX26167   7.465   6.447   2.277  3.1356  0.9085  2.9041
  196POPC    HY26168   7.397   6.578   2.173 -1.1304 -2.4478 -0.1894
  196POPC   O3126169   7.471   6.631   2.367  0.0423  0.5248  0.2363
  196POPC   C3126170   7.428   6.754   2.351 -0.2201  0.0357 -0.8591
  196POPC   O3226171   7.410   6.807   2.242  0.0560  0.1434 -0.6866
  196POPC   C3226172   7.426   6.819   2.491  0.1258 -0.5199  0.4542
  196POPC   H2X26173   7.369   6.914   2.480  0.2570 -0.4308  0.5480
  196POPC   H2Y26174   7.528   6.852   2.520 -0.0047  1.4304 -1.0805
  196POPC   C2326175   7.815   6.581   2.604 -0.4391 -0.3066 -0.2221
  196POPC   H3R26176   7.893   6.533   2.668 -0.7822  1.2900  1.4902
  196POPC   H3S26177   7.723   6.519   2.617 -2.1246  1.8804 -1.2525
  196POPC   C2426178   7.786   6.723   2.652  0.3035 -0.0012  0.0526
  196POPC   H4R26179   7.707   6.779   2.597 -1.4556 -0.1109  2.2824
  196POPC   H4S26180   7.879   6.783   2.649 -0.0612  0.5779  0.1447
  196POPC   C2526181   7.741   6.715   2.803  0.5441  0.2059  0.5626
  196POPC   H5R26182   7.786   6.631   2.860 -1.8322 -1.8188 -0.3379
  196POPC   H5S26183   7.632   6.693   2.798  0.5652  0.1402  0.3480
  196POPC   C2626184   7.766   6.841   2.887 -0.2132  0.2260 -0.0177
  196POPC   H6R26185   7.707   6.923   2.840 -0.5025 -1.0389 -1.9853
  196POPC   H6S26186   7.873   6.861   2.862 -0.4375 -0.6633 -1.8358
  196POPC   C2726187   7.745   6.824   3.036 -0.5381 -0.0814 -0.2952
  196POPC   H7R26188   7.638   6.817   3.064 -0.2767 -0.8177  0.6004
  196POPC   H7S26189   7.799   6.737   3.079  1.5966  1.5454  0.5028
  196POPC   C2826190   7.801   6.953   3.102 -0.0019  0.3599 -0.3878
  196POPC   H8R26191   7.752   7.033   3.043 -0.8066  1.2457  1.4217
  196POPC   H8S26192   7.912   6.953   3.104  0.0002 -0.3294  1.4855
  196POPC   C2926193   7.759   6.942   3.252  0.1044  1.0986  0.4986
  196POPC   H9126194   7.812   6.860   3.302 -1.8197 -0.3867  0.2298
  196POPC  C21026195   7.669   7.022   3.315  0.8211  0.0367  0.2640
  196POPC  H10126196   7.644   6.994   3.418  1.2282  1.2270  0.7061
  196POPC  C21126197   7.592   7.142   3.262  0.0365 -0.7533  0.0528
  196POPC  H11R26198   7.482   7.132   3.276  0.1016 -1.2360  0.2556
  196POPC  H11S26199   7.609   7.152   3.153  2.2322 -4.3916 -0.0977
  196POPC  C21226200   7.633   7.264   3.337  0.1722 -0.5124 -0.6428
  196POPC  H12R26201   7.615   7.357   3.279 -0.2271 -1.3286 -1.8877
  196POPC  H12S26202   7.744   7.263   3.342  0.2933  1.7563 -1.6077
  196POPC  C21326203   7.574   7.275   3.474  0.3833 -0.0047  0.6651
  196POPC  H13R26204   7.599   7.175   3.515 -0.3591 -0.2743  0.4867
  196POPC  H13S26205   7.464   7.269   3.460  0.4704  1.8251 -1.2765
  196POPC  C21426206   7.617   7.396   3.547 -0.0738  0.4404  0.8854
  196POPC  H14R26207   7.566   7.485   3.504  1.8998  1.9893  1.6033
  196POPC  H14S26208   7.726   7.409   3.529 -0.2897  1.0803  0.0072
  196POPC  C21526209   7.579   7.381   3.695 -0.4836 -0.9199 -0.7930
  196POPC  H15R26210   7.624   7.289   3.736  0.9507  0.3991  0.6896
  196POPC  H15S26211   7.468   7.375   3.698 -0.6916  1.4307  3.3092
  196POPC  C21626212   7.621   7.508   3.772 -0.4624 -0.0423 -0.3145
  196POPC  H16R26213   7.594   7.505   3.880 -0.7227  0.6561 -0.3572
  196POPC  H16S26214   7.562   7.592   3.731 -0.2430 -0.3578 -1.3250
  196POPC  C21726215   7.775   7.538   3.749  1.2367 -0.6131  0.0991
  196POPC  H17R26216   7.792   7.570   3.644 -1.2339  0.6753 -0.0010
  196POPC  H17S26217   7.840   7.450   3.766  1.8762  0.0302  1.0157
  196POPC  C21826218   7.818   7.658   3.838  0.5812  0.5620 -0.3534
  196POPC  H18R26219   7.924   7.684   3.816  0.9599  0.4573  1.2566
  196POPC  H18S26220   7.810   7.628   3.945 -0.2682 -1.1371 -0.8540
  196POPC  H18T26221   7.750   7.740   3.807  1.9620  0.5572 -3.8832
  196POPC   C3326222   7.362   6.723   2.591  0.4837 -0.5426  0.5205
  196POPC   H3X26223   7.444   6.650   2.609  1.3260  0.4046  0.6466
  196POPC   H3Y26224   7.274   6.664   2.560  0.5964  0.4453 -1.9089
  196POPC   C3426225   7.318   6.789   2.722  0.0590 -0.2798 -0.5251
  196POPC   H4X26226   7.222   6.844   2.712 -0.3020 -0.8761 -0.3642
  196POPC   H4Y26227   7.400   6.860   2.750 -0.5140  0.7331 -1.3298
  196POPC   C3526228   7.292   6.689   2.829 -0.2432 -0.2316 -0.6525
  196POPC   H5X26229   7.350   6.596   2.814  1.0591  0.4054  0.3195
  196POPC   H5Y26230   7.184   6.663   2.819 -0.1949  0.2217 -2.9117
  196POPC   C3626231   7.332   6.732   2.970  0.8004 -0.6195  0.1544
  196POPC   H6X26232   7.439   6.757   2.987  0.1192  0.3034  4.0823
  196POPC   H6Y26233   7.303   6.658   3.048 -1.2905  0.7463  0.7598
  196POPC   C3726234   7.259   6.859   3.024  0.2704 -0.2093 -0.1760
  196POPC   H7X26235   7.150   6.838   3.023  0.2122 -0.0225  0.8638
  196POPC   H7Y26236   7.275   6.941   2.951  0.0476 -1.5453 -1.7671
  196POPC   C3826237   7.298   6.901   3.165 -0.0375 -0.0127 -0.2599
  196POPC   H8X26238   7.272   7.009   3.159  0.0155  0.0031 -0.2117
  196POPC   H8Y26239   7.404   6.879   3.190 -0.1192  1.3275  1.5265
  196POPC   C3926240   7.198   6.831   3.265  0.4139 -0.8341 -0.7027
  196POPC   H9X26241   7.196   6.724   3.234  1.0162 -0.7866 -0.9151
  196POPC   H9Y26242   7.098   6.876   3.245  0.5409 -0.2629 -0.0967
  196POPC  C31026243   7.229   6.870   3.414 -0.3037 -0.5764  0.8687
  196POPC  H10X26244   7.140   6.855   3.480 -0.9507 -0.5006  0.0322
  196POPC  H10Y26245   7.263   6.974   3.399  1.1510 -0.8981  1.7518
  196POPC  C31126246   7.353   6.799   3.464 -0.5246  0.1096 -0.3571
  196POPC  H11X26247   7.429   6.804   3.384 -1.4822  1.0346 -1.2550
  196POPC  H11Y26248   7.327   6.694   3.487 -0.9099  0.5305  1.3311
  196POPC  C31226249   7.409   6.867   3.586 -0.3997  0.1089 -0.5309
  196POPC  H12X26250   7.333   6.845   3.663  1.0257 -0.1081  0.8678
  196POPC  H12Y26251   7.418   6.977   3.572 -0.0920  0.0200 -1.0708
  196POPC  C31326252   7.544   6.801   3.626  0.3256  0.6147 -0.8169
  196POPC  H13X26253   7.616   6.812   3.543 -0.2543  0.9419 -1.2833
  196POPC  H13Y26254   7.525   6.692   3.634  0.6358  0.6204  0.1558
  196POPC  C31426255   7.596   6.855   3.755  0.1533  0.3267 -0.5222
  196POPC  H14X26256   7.680   6.791   3.788  2.6599  3.0312 -1.2852
  196POPC  H14Y26257   7.514   6.869   3.829  0.0204  0.6416 -0.7233
  196POPC  C31526258   7.670   6.987   3.736  0.2956 -0.4587  0.2558
  196POPC  H15X26259   7.595   7.049   3.684  0.6023 -1.3224 -1.2605
  196POPC  H15Y26260   7.757   6.981   3.668  1.2146  1.1059  1.2231
  196POPC  C31626261   7.726   7.055   3.863  0.0173  0.0774 -0.8072
  196POPC  H16X26262   7.810   7.006   3.916  0.1598  1.4660  0.2999
  196POPC  H16Y26263   7.644   7.067   3.937  0.9501  0.9252  0.1218
  196POPC  H16Z26264   7.759   7.156   3.832 -1.9139 -0.2201 -4.3891
  197POPC     N26265   1.987   7.158   1.695  0.1749  0.3365  0.5376
  197POPC   C1226266   1.989   7.129   1.845 -0.8367 -0.1080  0.8300
  197POPC  H12A26267   1.958   7.225   1.884  0.0333  0.7609 -0.5049
  197POPC  H12B26268   2.093   7.111   1.868 -0.3866 -1.7352 -1.9786
  197POPC   C1326269   1.848   7.191   1.650  0.1233 -0.6470  0.3362
  197POPC  H13A26270   1.841   7.239   1.554 -1.3603  0.1706  0.8335
  197POPC  H13B26271   1.792   7.100   1.632 -0.4085 -0.5109  1.2664
  197POPC  H13C26272   1.788   7.251   1.716 -0.1800 -0.4383 -0.1265
  197POPC   C1426273   2.069   7.285   1.673  0.2217 -0.5363  0.6641
  197POPC  H14A26274   2.029   7.369   1.728 -0.2990  1.1731 -2.1552
  197POPC  H14B26275   2.173   7.282   1.705  0.5948  1.0116 -0.3362
  197POPC  H14C26276   2.082   7.312   1.570  2.2591 -0.9254  0.7670
  197POPC   C1526277   2.048   7.045   1.630  0.4284 -0.5510  0.2394
  197POPC  H15A26278   2.000   6.952   1.657 -1.3164  0.9697  2.8757
  197POPC  H15B26279   2.153   7.029   1.650  0.6762  0.6533 -0.0080
  197POPC  H15C26280   2.042   7.054   1.523 -1.6156 -2.5628  0.1248
  197POPC   C1126281   1.904   7.016   1.908  0.3509 -0.5096  0.4537
  197POPC  H11A26282   1.801   7.046   1.879  0.1984 -1.7907 -0.3894
  197POPC  H11B26283   1.913   7.021   2.019 -1.0075 -0.0993  0.5728
  197POPC     P26284   2.011   6.770   1.918  0.1219 -0.0179 -0.0241
  197POPC   O1326285   2.089   6.713   1.803  0.3143  0.9278  0.4197
  197POPC   O1426286   1.922   6.674   1.985  0.8442  0.0503 -0.0809
  197POPC   O1226287   1.931   6.884   1.853 -0.5872 -0.2602  0.2042
  197POPC   O1126288   2.116   6.837   2.016 -0.1759 -0.3706 -0.0216
  197POPC    C126289   2.224   6.919   1.981  0.4245  0.7923 -0.4076
  197POPC    HA26290   2.199   7.004   1.915  1.5809 -0.0913 -2.0683
  197POPC    HB26291   2.305   6.856   1.937  1.0826  1.2981  0.0687
  197POPC    C226292   2.271   6.981   2.115  0.5662 -0.0450 -0.2723
  197POPC    HS26293   2.266   6.907   2.197 -0.5544  0.5503  0.2134
  197POPC   O2126294   2.172   7.085   2.146  0.8005 -0.4296 -0.0712
  197POPC   C2126295   2.079   7.054   2.230  0.2061  0.6080 -0.4218
  197POPC   O2226296   2.061   6.948   2.292 -0.4095 -0.3605 -0.2391
  197POPC   C2226297   1.980   7.161   2.242  0.0927  0.1769 -0.6871
  197POPC   H2R26298   1.900   7.111   2.300 -0.8536  0.4796 -1.7102
  197POPC   H2S26299   1.927   7.193   2.150  0.3060 -0.7134 -1.1352
  197POPC    C326300   2.417   7.043   2.104 -0.1837 -0.0802 -0.0360
  197POPC    HX26301   2.411   7.124   2.027  0.4915 -0.3656 -0.4004
  197POPC    HY26302   2.486   6.969   2.059 -0.4165  0.0511 -0.6249
  197POPC   O3126303   2.474   7.071   2.237  0.1508 -0.3200  0.3865
  197POPC   C3126304   2.457   7.188   2.276 -0.2308 -0.3083  0.0274
  197POPC   O3226305   2.411   7.281   2.210  0.0899 -0.0129  0.2650
  197POPC   C3226306   2.484   7.196   2.432 -0.3419  0.9082  0.0520
  197POPC   H2X26307   2.487   7.304   2.457  0.6610  0.8154  0.3898
  197POPC   H2Y26308   2.581   7.149   2.460 -0.3615  1.1466  0.5275
  197POPC   C2326309   2.032   7.286   2.320  0.8688 -0.2338 -0.1539
  197POPC   H3R26310   2.101   7.341   2.253 -0.9587  1.7905 -0.4822
  197POPC   H3S26311   2.096   7.253   2.405  0.4742  2.7566  1.4602
  197POPC   C2426312   1.931   7.395   2.367 -0.0948  0.7456  0.5360
  197POPC   H4R26313   1.878   7.421   2.273  3.1214 -0.2053 -1.7331
  197POPC   H4S26314   1.984   7.489   2.394 -0.0998  1.2258 -1.0435
  197POPC   C2526315   1.829   7.351   2.464  0.4302 -0.4863 -0.7546
  197POPC   H5R26316   1.771   7.273   2.409 -0.9021  0.3531 -0.5876
  197POPC   H5S26317   1.765   7.440   2.483  1.9555 -0.0698  3.5085
  197POPC   C2626318   1.870   7.284   2.590  0.1723 -0.5966  0.0108
  197POPC   H6R26319   1.922   7.358   2.654  1.2153 -0.9685 -0.3886
  197POPC   H6S26320   1.931   7.193   2.574 -0.8186 -1.3542  0.4446
  197POPC   C2726321   1.747   7.240   2.671  0.4881 -0.0661  0.6348
  197POPC   H7R26322   1.682   7.184   2.600  0.2112  2.4167 -1.1946
  197POPC   H7S26323   1.701   7.333   2.711  0.1139 -1.6436  4.2792
  197POPC   C2826324   1.781   7.157   2.793  0.1136 -0.3968 -0.0131
  197POPC   H8R26325   1.863   7.212   2.845  1.8682 -3.9131  1.2936
  197POPC   H8S26326   1.825   7.066   2.746 -0.8083 -0.7458 -0.2275
  197POPC   C2926327   1.674   7.109   2.886 -1.0571 -0.5574  0.2694
  197POPC   H9126328   1.587   7.075   2.828  0.2408 -1.8128 -1.0240
  197POPC  C21026329   1.673   7.107   3.018  0.7221  0.1454  1.1132
  197POPC  H10126330   1.577   7.077   3.063  0.8961 -0.8145  0.8751
  197POPC  C21126331   1.771   7.166   3.117 -0.6682  0.4300 -0.2664
  197POPC  H11R26332   1.800   7.272   3.105 -0.0098  0.3092  0.2072
  197POPC  H11S26333   1.868   7.111   3.117  0.1866  1.8113  1.5891
  197POPC  C21226334   1.712   7.157   3.269  0.0465  0.4503  0.5173
  197POPC  H12R26335   1.655   7.064   3.290 -0.9225  0.9057 -0.0637
  197POPC  H12S26336   1.634   7.235   3.278 -2.2534 -1.8012  0.9836
  197POPC  C21326337   1.830   7.184   3.363 -0.5215 -0.1207  0.1639
  197POPC  H13R26338   1.875   7.286   3.361  1.0128 -0.7716  0.2206
  197POPC  H13S26339   1.906   7.106   3.343 -1.6474 -1.0897 -0.4158
  197POPC  C21426340   1.782   7.171   3.510  0.2533  0.1341  0.3446
  197POPC  H14R26341   1.714   7.083   3.520  0.4347 -0.0808 -0.2390
  197POPC  H14S26342   1.723   7.261   3.538  1.5367  0.4989  2.0146
  197POPC  C21526343   1.902   7.165   3.603  0.0485 -0.9299  0.0508
  197POPC  H15R26344   1.958   7.260   3.595 -1.2275  0.0711  2.1366
  197POPC  H15S26345   1.953   7.069   3.581  1.6329  0.0362 -0.6386
  197POPC  C21626346   1.845   7.145   3.747 -0.7939 -0.6355 -0.5589
  197POPC  H16R26347   1.931   7.131   3.817 -1.9285  2.3718  1.6827
  197POPC  H16S26348   1.786   7.054   3.771  0.1482 -0.6328  2.0834
  197POPC  C21726349   1.767   7.269   3.801  0.1054 -0.2410  0.0635
  197POPC  H17R26350   1.673   7.295   3.747 -0.9623  0.8847  2.3360
  197POPC  H17S26351   1.831   7.357   3.781  0.7376 -0.5613  0.6534
  197POPC  C21826352   1.729   7.264   3.953  0.0491  0.6148 -0.1959
  197POPC  H18R26353   1.694   7.364   3.988  4.1216  2.2416 -0.1508
  197POPC  H18S26354   1.813   7.241   4.022 -1.1224  0.6042  1.2976
  197POPC  H18T26355   1.662   7.179   3.977  2.0641 -1.4237 -1.4087
  197POPC   C3326356   2.373   7.119   2.510 -0.2889  1.0899 -0.3994
  197POPC   H3X26357   2.389   7.010   2.497  2.2315  1.5634 -1.9937
  197POPC   H3Y26358   2.274   7.147   2.468  0.0621  2.2020 -0.5348
  197POPC   C3426359   2.375   7.147   2.657  0.0602 -0.0861  0.0244
  197POPC   H4X26360   2.356   7.256   2.670  1.9939  0.2653  0.1731
  197POPC   H4Y26361   2.476   7.132   2.700  0.0370  0.6874  0.3650
  197POPC   C3526362   2.268   7.069   2.735  0.3916  0.7963 -0.2280
  197POPC   H5X26363   2.296   6.962   2.726  1.7854  1.2861 -2.2959
  197POPC   H5Y26364   2.169   7.078   2.685  0.4710 -0.1364 -0.5524
  197POPC   C3626365   2.272   7.114   2.881  0.0794 -0.3739 -0.1881
  197POPC   H6X26366   2.372   7.146   2.916 -0.2342 -0.1923  0.5634
  197POPC   H6Y26367   2.243   7.029   2.946  0.9548  0.8358  1.8720
  197POPC   C3726368   2.169   7.226   2.900  1.1448 -0.1012  0.8929
  197POPC   H7X26369   2.067   7.183   2.889  0.6410  0.4939  2.9179
  197POPC   H7Y26370   2.175   7.293   2.812  0.3970 -2.4349 -1.0696
  197POPC   C3826371   2.183   7.307   3.027 -0.2316  0.5950 -0.1285
  197POPC   H8X26372   2.288   7.342   3.032 -0.3090  0.6223  2.9111
  197POPC   H8Y26373   2.172   7.242   3.116 -0.0434  0.9342  0.1429
  197POPC   C3926374   2.079   7.412   3.041  0.2544  0.5155  0.2762
  197POPC   H9X26375   1.980   7.361   3.034  1.0793 -0.8712 -2.9448
  197POPC   H9Y26376   2.083   7.481   2.954 -0.6024  0.1045 -0.0971
  197POPC  C31026377   2.089   7.485   3.172 -0.4261  0.1856 -0.7815
  197POPC  H10X26378   2.149   7.578   3.169  2.1750 -1.3921 -2.7379
  197POPC  H10Y26379   2.139   7.428   3.254 -3.4274 -0.5188  0.7034
  197POPC  C31126380   1.956   7.527   3.227  0.0729  0.2754  0.1408
  197POPC  H11X26381   1.896   7.437   3.204  1.5565 -0.9418  0.8667
  197POPC  H11Y26382   1.916   7.612   3.167 -3.9318  0.3759  2.5665
  197POPC  C31226383   1.953   7.559   3.376  0.0575  0.4793  0.2341
  197POPC  H12X26384   2.020   7.645   3.400  0.4226  0.7507 -1.6371
  197POPC  H12Y26385   1.985   7.469   3.433 -0.0087  1.0571  1.2176
  197POPC  C31326386   1.810   7.591   3.433 -0.2787 -0.3081  1.1148
  197POPC  H13X26387   1.734   7.524   3.389 -0.1381  1.6095 -2.3582
  197POPC  H13Y26388   1.779   7.692   3.398 -0.2846 -0.1087  1.6767
  197POPC  C31426389   1.820   7.601   3.585  0.2754 -0.1447  0.1101
  197POPC  H14X26390   1.913   7.659   3.606 -1.8309  2.3815  3.4216
  197POPC  H14Y26391   1.835   7.501   3.629  0.9647 -0.0720  0.0549
  197POPC  C31526392   1.699   7.666   3.644  0.9366  0.1993  0.1311
  197POPC  H15X26393   1.619   7.591   3.663  0.7746  0.7954  2.0366
  197POPC  H15Y26394   1.658   7.747   3.580 -1.1687 -0.0076  1.1458
  197POPC  C31626395   1.730   7.728   3.776  0.0890 -0.7276 -0.6491
  197POPC  H16X26396   1.748   7.649   3.852 -1.0653 -1.8336 -1.4740
  197POPC  H16Y26397   1.643   7.790   3.807  0.4864 -0.5008  0.0043
  197POPC  H16Z26398   1.814   7.799   3.768 -0.1557 -0.2966  0.5049
  198POPC     N26399   6.749   6.437   1.784 -0.4679  0.4858  0.7858
  198POPC   C1226400   6.767   6.491   1.921 -0.6680  0.2426  0.1213
  198POPC  H12A26401   6.685   6.554   1.953  0.1426  0.6143  1.5103
  198POPC  H12B26402   6.858   6.550   1.925 -0.3204  0.1041 -2.9699
  198POPC   C1326403   6.751   6.566   1.693 -0.2005  0.2409 -0.6859
  198POPC  H13A26404   6.667   6.630   1.712  0.6128  0.5479  2.4206
  198POPC  H13B26405   6.846   6.616   1.704 -1.4610  2.5878  0.1111
  198POPC  H13C26406   6.745   6.540   1.588  0.9993 -0.1163 -0.6910
  198POPC   C1426407   6.862   6.352   1.740 -0.0027 -0.4719 -1.0486
  198POPC  H14A26408   6.885   6.292   1.827 -0.3821 -0.3937 -0.8928
  198POPC  H14B26409   6.836   6.278   1.665 -2.0222  0.4448 -1.3321
  198POPC  H14C26410   6.953   6.402   1.709  1.0011 -1.0368  0.8176
  198POPC   C1526411   6.619   6.365   1.777  0.0098 -0.0374  0.6245
  198POPC  H15A26412   6.534   6.411   1.826 -0.6599 -0.5315 -0.0470
  198POPC  H15B26413   6.629   6.274   1.833  1.1438 -1.7390 -2.1407
  198POPC  H15C26414   6.595   6.334   1.676  0.3140 -0.0911  0.5686
  198POPC   C1126415   6.776   6.400   2.044  0.0682  0.2747  0.0677
  198POPC  H11A26416   6.677   6.350   2.044 -0.2182  0.8335  0.3197
  198POPC  H11B26417   6.778   6.471   2.129  0.7251  2.6643 -1.8410
  198POPC     P26418   7.009   6.342   2.124  0.0338  0.0222 -0.2417
  198POPC   O1326419   7.068   6.471   2.092 -0.0692 -0.2363 -0.5939
  198POPC   O1426420   7.103   6.230   2.106 -0.0063 -0.7686 -0.2397
  198POPC   O1226421   6.887   6.307   2.037  0.4668 -0.0907 -0.4054
  198POPC   O1126422   6.959   6.339   2.266 -0.0391  0.7839 -0.0133
  198POPC    C126423   6.889   6.226   2.327 -0.1504 -0.3275  0.5723
  198POPC    HA26424   6.934   6.130   2.292  0.6558 -0.1411  1.0659
  198POPC    HB26425   6.779   6.219   2.311 -0.0936  0.3057 -0.1240
  198POPC    C226426   6.925   6.220   2.481 -0.2461 -0.3821  0.2095
  198POPC    HS26427   6.890   6.317   2.521 -2.5624 -1.1242  0.1498
  198POPC   O2126428   7.066   6.188   2.492 -0.0522  0.6770  0.3419
  198POPC   C2126429   7.147   6.286   2.500  0.0670  0.0161 -0.2580
  198POPC   O2226430   7.119   6.403   2.523  0.1280 -0.2893 -0.1549
  198POPC   C2226431   7.285   6.228   2.472 -0.3909  0.2620 -0.0884
  198POPC   H2R26432   7.299   6.210   2.364 -1.9121  1.6373 -0.5550
  198POPC   H2S26433   7.284   6.129   2.523 -3.5240  1.1286  1.8538
  198POPC    C326434   6.840   6.103   2.548  0.1394 -0.3907 -0.3195
  198POPC    HX26435   6.857   6.016   2.481  4.0461 -0.6380  0.7130
  198POPC    HY26436   6.732   6.128   2.546  0.0298 -0.8773 -0.9142
  198POPC   O3126437   6.891   6.074   2.682  0.6911  0.0627 -0.0149
  198POPC   C3126438   6.836   6.155   2.778  0.5327 -0.3349 -0.2134
  198POPC   O3226439   6.751   6.243   2.751 -0.2829  0.6275 -0.2777
  198POPC   C3226440   6.886   6.122   2.918  0.3817 -0.1800  0.1117
  198POPC   H2X26441   6.895   6.011   2.921 -1.0041 -0.2769  1.8072
  198POPC   H2Y26442   6.816   6.146   3.000  0.9401  0.6836  0.3480
  198POPC   C2326443   7.391   6.322   2.530 -0.3438 -0.6804  0.3445
  198POPC   H3R26444   7.386   6.421   2.481  2.2854 -1.2061 -1.1692
  198POPC   H3S26445   7.490   6.280   2.503 -0.6440 -1.4815  0.4458
  198POPC   C2426446   7.382   6.342   2.684  0.3499 -0.1458  0.3694
  198POPC   H4R26447   7.352   6.247   2.733 -0.4692  0.3923  0.9447
  198POPC   H4S26448   7.299   6.414   2.701  0.8617  0.7459 -0.7116
  198POPC   C2526449   7.519   6.386   2.749  0.2177  0.4112  0.0535
  198POPC   H5R26450   7.541   6.489   2.714 -1.2548  0.4362 -0.8581
  198POPC   H5S26451   7.595   6.324   2.697  0.1844 -1.5891  2.2113
  198POPC   C2626452   7.523   6.365   2.900 -0.0199 -0.3700  0.1326
  198POPC   H6R26453   7.484   6.262   2.914  2.0946 -1.6274 -2.3201
  198POPC   H6S26454   7.463   6.441   2.953  0.2650  0.3083 -0.5052
  198POPC   C2726455   7.664   6.365   2.960  0.3460 -0.5674 -0.5340
  198POPC   H7R26456   7.713   6.449   2.907 -0.4729 -1.1886 -2.3676
  198POPC   H7S26457   7.711   6.271   2.923  3.5675 -0.3085  2.4486
  198POPC   C2826458   7.665   6.357   3.113  0.8072  0.2825  0.0238
  198POPC   H8R26459   7.769   6.342   3.151  1.5887  2.1511 -1.2347
  198POPC   H8S26460   7.595   6.274   3.135  2.3099 -1.4657 -1.4236
  198POPC   C2926461   7.622   6.493   3.169 -0.0841  0.3048 -0.1971
  198POPC   H9126462   7.678   6.579   3.130 -2.2618  2.0833  0.4010
  198POPC  C21026463   7.516   6.515   3.255 -0.1971 -0.1575 -0.2132
  198POPC  H10126464   7.503   6.620   3.286 -1.0448 -0.5130  0.6889
  198POPC  C21126465   7.420   6.406   3.304  0.2047 -0.4538 -0.5711
  198POPC  H11R26466   7.404   6.337   3.218  0.9965 -2.0498  0.5100
  198POPC  H11S26467   7.321   6.441   3.340  1.4351 -0.2361  2.9979
  198POPC  C21226468   7.477   6.337   3.426 -0.6248  0.2877 -0.2522
  198POPC  H12R26469   7.499   6.412   3.505  2.2874  1.1275 -1.7208
  198POPC  H12S26470   7.577   6.294   3.404 -0.4411 -0.0299  1.0812
  198POPC  C21326471   7.372   6.231   3.479 -0.8100 -0.8269 -0.1160
  198POPC  H13R26472   7.387   6.148   3.408  1.9446 -0.2649 -0.3082
  198POPC  H13S26473   7.267   6.264   3.464 -0.0046  0.6981 -3.3206
  198POPC  C21426474   7.394   6.195   3.625 -0.0579  0.2503 -0.1451
  198POPC  H14R26475   7.372   6.290   3.677 -2.4142  0.8257 -2.0165
  198POPC  H14S26476   7.500   6.171   3.648  0.0130  0.0581 -0.6611
  198POPC  C21526477   7.314   6.072   3.663  0.3285  0.8731 -0.5942
  198POPC  H15R26478   7.337   5.993   3.588  0.9370  1.8228 -1.4351
  198POPC  H15S26479   7.207   6.101   3.668  0.2920  0.9011 -1.4489
  198POPC  C21626480   7.360   6.018   3.800 -0.5604  0.4777 -0.2059
  198POPC  H16R26481   7.467   5.987   3.798 -0.4966 -0.1087  3.8471
  198POPC  H16S26482   7.312   5.918   3.809  1.3891 -0.4982 -0.1219
  198POPC  C21726483   7.329   6.106   3.929 -0.1597  0.0667 -0.3180
  198POPC  H17R26484   7.229   6.153   3.916 -0.1116  0.0958 -0.5855
  198POPC  H17S26485   7.399   6.192   3.932 -1.1842  0.9159  2.6616
  198POPC  C21826486   7.336   6.032   4.064  0.4385 -0.3783 -0.1906
  198POPC  H18R26487   7.292   6.094   4.145  1.8387  1.0028 -0.4434
  198POPC  H18S26488   7.439   6.007   4.098  0.3829 -1.1488 -0.5799
  198POPC  H18T26489   7.276   5.939   4.063 -0.1363 -0.0159 -0.1098
  198POPC   C3326490   7.026   6.178   2.955 -0.4113 -0.7612 -1.2209
  198POPC   H3X26491   7.096   6.154   2.872 -1.6585  1.2223 -2.9707
  198POPC   H3Y26492   7.067   6.132   3.047 -0.1846 -0.6869 -1.2856
  198POPC   C3426493   7.033   6.333   2.972  0.4389  0.0777  0.0501
  198POPC   H4X26494   6.989   6.385   2.884  0.6107  1.2492  0.6286
  198POPC   H4Y26495   7.142   6.348   2.986  0.5927  0.2967 -1.2684
  198POPC   C3526496   6.965   6.381   3.103 -0.0422 -0.0016  0.0904
  198POPC   H5X26497   7.000   6.324   3.192 -2.0967  1.1351  1.7467
  198POPC   H5Y26498   6.858   6.349   3.104 -0.4853  1.0406  3.9748
  198POPC   C3626499   6.967   6.533   3.127  0.2106 -0.0498 -0.5614
  198POPC   H6X26500   6.905   6.595   3.059  0.9463  3.0156  1.3395
  198POPC   H6Y26501   7.074   6.564   3.127  0.7609 -1.8239  0.2829
  198POPC   C3726502   6.908   6.572   3.262  0.0693 -0.2445 -0.2237
  198POPC   H7X26503   6.810   6.524   3.279  0.2953 -0.3663  0.7956
  198POPC   H7Y26504   6.884   6.681   3.261 -1.3867 -0.5339  0.5932
  198POPC   C3826505   6.999   6.539   3.382 -0.2861 -0.1339 -0.4412
  198POPC   H8X26506   7.104   6.566   3.357  0.0169 -1.5746 -0.8242
  198POPC   H8Y26507   7.009   6.428   3.390 -4.6321 -0.5914  2.1474
  198POPC   C3926508   6.941   6.568   3.518 -0.7817  0.7388 -0.0347
  198POPC   H9X26509   6.835   6.534   3.524 -0.2662 -0.6796  2.4969
  198POPC   H9Y26510   6.939   6.679   3.527  0.3030  1.0605 -2.8756
  198POPC  C31026511   7.008   6.508   3.641  0.4352  0.4036  0.7744
  198POPC  H10X26512   6.994   6.398   3.649  0.6063  0.2675 -0.5914
  198POPC  H10Y26513   6.958   6.552   3.730  0.1739 -0.5815  1.1231
  198POPC  C31126514   7.164   6.542   3.640  0.4772  0.1776 -0.3042
  198POPC  H11X26515   7.172   6.652   3.632  0.7569  0.3158  1.6132
  198POPC  H11Y26516   7.207   6.489   3.552  1.5897  0.1638  0.2270
  198POPC  C31226517   7.252   6.502   3.762  0.0223  0.0629  0.3783
  198POPC  H12X26518   7.360   6.490   3.741  0.0077  0.7780 -0.1759
  198POPC  H12Y26519   7.204   6.405   3.786 -0.1767  0.2464  0.7362
  198POPC  C31326520   7.238   6.593   3.886 -0.2238  0.5688 -0.1130
  198POPC  H13X26521   7.134   6.633   3.890 -0.4925  0.1754 -2.1161
  198POPC  H13Y26522   7.307   6.678   3.867 -0.8973  1.1691  0.0540
  198POPC  C31426523   7.268   6.517   4.011 -0.3990  0.2933 -0.3494
  198POPC  H14X26524   7.359   6.456   3.991 -0.3967  0.5916 -1.2847
  198POPC  H14Y26525   7.179   6.451   4.012  0.0660 -0.3499 -0.6747
  198POPC  C31526526   7.277   6.602   4.144 -0.1886 -0.4448 -0.0872
  198POPC  H15X26527   7.229   6.547   4.228  0.7423 -0.3389  0.5226
  198POPC  H15Y26528   7.219   6.695   4.129  0.3031  0.3987  2.6999
  198POPC  C31626529   7.418   6.645   4.196  0.6789 -0.1281  0.1651
  198POPC  H16X26530   7.409   6.712   4.285 -0.9720 -1.2585  0.8895
  198POPC  H16Y26531   7.471   6.706   4.120 -0.1121  1.4637  0.8433
  198POPC  H16Z26532   7.469   6.547   4.202 -1.3936 -1.2116  1.1275
  199POPC     N26533   3.540   0.201   1.786  0.7312  0.3164 -0.5510
  199POPC   C1226534   3.601   0.139   1.665 -1.0370 -0.1744  0.3820
  199POPC  H12A26535   3.668   0.209   1.616  0.4296 -2.3887 -0.9300
  199POPC  H12B26536   3.520   0.106   1.601 -2.1348  0.9065  1.1650
  199POPC   C1326537   3.426   0.294   1.747  0.1970  0.0496 -0.6486
  199POPC  H13A26538   3.352   0.238   1.693 -0.2478 -0.1091  0.1126
  199POPC  H13B26539   3.386   0.343   1.834  2.3667  2.4733 -0.9040
  199POPC  H13C26540   3.460   0.368   1.676  0.7956  0.2868 -0.1308
  199POPC   C1426541   3.480   0.091   1.875  0.0444 -0.2601 -0.2118
  199POPC  H14A26542   3.412   0.025   1.823 -0.2394  0.9711 -1.4743
  199POPC  H14B26543   3.556   0.022   1.908  1.4598  0.3848 -1.9234
  199POPC  H14C26544   3.438   0.130   1.966  3.5656  0.8661  1.1042
  199POPC   C1526545   3.644   0.275   1.861  0.3500 -0.2754 -0.5529
  199POPC  H15A26546   3.602   0.317   1.951 -0.4311  0.3165 -1.1798
  199POPC  H15B26547   3.691   0.342   1.791  0.3262 -1.1303 -1.4098
  199POPC  H15C26548   3.723   0.209   1.896  1.6738  0.7981 -1.3976
  199POPC   C1126549   3.694   0.015   1.692  0.0185  0.3467 -0.3717
  199POPC  H11A26550   3.730  -0.031   1.597 -0.8076  3.1233 -2.1747
  199POPC  H11B26551   3.624  -0.058   1.739 -1.5220  1.5873 -0.6562
  199POPC     P26552   3.937   0.088   1.706  0.7824 -0.0051  0.3368
  199POPC   O1326553   3.916   0.232   1.657  0.0137  0.2392 -0.5867
  199POPC   O1426554   3.980  -0.017   1.609  0.6013 -0.0129  0.5258
  199POPC   O1226555   3.806   0.033   1.778  0.1672 -0.0770  0.0857
  199POPC   O1126556   4.047   0.085   1.820 -0.1581  0.1055  0.3075
  199POPC    C126557   4.018   0.036   1.954  0.9732  0.4258 -0.2381
  199POPC    HA26558   4.019  -0.075   1.952 -0.2559  0.4109 -0.9433
  199POPC    HB26559   3.917   0.067   1.988  0.8797  2.1512 -1.9073
  199POPC    C226560   4.119   0.097   2.055 -0.2543 -0.3973  0.7102
  199POPC    HS26561   4.066   0.090   2.152  1.6892 -0.5747  1.8051
  199POPC   O2126562   4.142   0.234   2.031  0.2412 -0.3117 -0.1344
  199POPC   C2126563   4.042   0.314   2.033 -0.0351  0.0179  0.3161
  199POPC   O2226564   3.927   0.283   2.062 -0.6511 -0.0484  0.7745
  199POPC   C2226565   4.085   0.448   1.982  0.1104 -0.4679 -0.2702
  199POPC   H2R26566   4.075   0.448   1.872 -1.7536 -2.2763 -0.1521
  199POPC   H2S26567   4.192   0.466   2.007  0.6302 -1.5653 -1.6176
  199POPC    C326568   4.258   0.019   2.061 -0.3812 -0.1087 -0.5737
  199POPC    HX26569   4.315   0.041   1.968  1.1611  1.4776  0.6771
  199POPC    HY26570   4.234  -0.089   2.057  0.5118 -0.2719 -3.5898
  199POPC   O3126571   4.334   0.059   2.174  0.1953  0.3551  0.0854
  199POPC   C3126572   4.457  -0.008   2.180  0.4861 -0.0911  0.5314
  199POPC   O3226573   4.501  -0.070   2.087 -0.0545 -0.1243 -0.5854
  199POPC   C3226574   4.506  -0.001   2.323  0.0482  0.5850 -0.5988
  199POPC   H2X26575   4.539   0.102   2.345  0.2959  0.1409  1.2543
  199POPC   H2Y26576   4.602  -0.055   2.335  0.3328  1.8148  5.3565
  199POPC   C2326577   3.983   0.555   2.033  0.5990 -0.5649 -0.1978
  199POPC   H3R26578   3.877   0.531   2.009  0.9869 -0.2124 -2.5846
  199POPC   H3S26579   4.012   0.641   1.968 -0.2011 -0.3062 -0.2201
  199POPC   C2426580   4.001   0.593   2.182 -0.1493 -0.0359  0.3152
  199POPC   H4R26581   4.108   0.585   2.207 -0.5554 -0.5137  2.0487
  199POPC   H4S26582   3.948   0.512   2.236 -1.2876 -0.5361 -1.4450
  199POPC   C2526583   3.954   0.731   2.210 -0.5104  0.1224  0.7743
  199POPC   H5R26584   3.858   0.738   2.155  0.4645  1.4774 -0.8474
  199POPC   H5S26585   4.019   0.805   2.160 -2.4071 -0.3660 -2.6906
  199POPC   C2626586   3.954   0.762   2.354 -0.1347 -0.0852  0.0020
  199POPC   H6R26587   3.936   0.872   2.354 -0.6598 -0.1646  0.3742
  199POPC   H6S26588   4.057   0.745   2.390  0.1330 -0.3896 -0.8901
  199POPC   C2726589   3.844   0.690   2.430 -0.3231 -0.0419  0.3497
  199POPC   H7R26590   3.869   0.583   2.445 -1.0666 -0.3079 -0.2068
  199POPC   H7S26591   3.749   0.676   2.373 -0.0693 -1.2878  0.2048
  199POPC   C2826592   3.807   0.744   2.568 -0.0673 -0.2667 -0.2585
  199POPC   H8R26593   3.712   0.691   2.592  0.2029 -0.8151 -0.3834
  199POPC   H8S26594   3.768   0.848   2.569 -3.1064 -1.2731  1.0327
  199POPC   C2926595   3.916   0.724   2.677  0.0362 -0.1495  0.4663
  199POPC   H9126596   4.014   0.758   2.642  0.7007 -1.7496  0.7155
  199POPC  C21026597   3.917   0.653   2.795 -0.5845 -0.1374 -0.2507
  199POPC  H10126598   4.012   0.654   2.851 -0.7367  1.6167  0.0501
  199POPC  C21126599   3.805   0.574   2.845  0.3550  0.0420  0.0773
  199POPC  H11R26600   3.793   0.478   2.790 -1.0163  0.9026 -1.2290
  199POPC  H11S26601   3.708   0.622   2.819 -0.1101 -0.6935  0.3994
  199POPC  C21226602   3.826   0.559   2.997  0.3509 -0.3910  0.9021
  199POPC  H12R26603   3.843   0.657   3.047 -0.6601 -0.1931  0.8862
  199POPC  H12S26604   3.915   0.494   3.011  0.2528 -0.2680  2.2467
  199POPC  C21326605   3.709   0.492   3.076 -0.1058  0.6773 -0.2961
  199POPC  H13R26606   3.708   0.385   3.045 -0.4262  0.4196  0.5781
  199POPC  H13S26607   3.618   0.538   3.034 -1.1264 -0.0613  1.0417
  199POPC  C21426608   3.720   0.507   3.230  0.0394 -0.3135  0.3295
  199POPC  H14R26609   3.762   0.609   3.234 -0.7885  0.0940 -0.8075
  199POPC  H14S26610   3.788   0.425   3.264  0.4155 -1.0886 -2.0963
  199POPC  C21526611   3.582   0.512   3.310 -0.9797 -0.1953  0.6465
  199POPC  H15R26612   3.544   0.410   3.331 -1.1619  0.0377  1.4861
  199POPC  H15S26613   3.507   0.549   3.236 -0.3854  1.3818  0.7856
  199POPC  C21626614   3.582   0.596   3.441 -0.0530 -0.0213  0.6730
  199POPC  H16R26615   3.485   0.647   3.459  0.3138  0.1840  2.2502
  199POPC  H16S26616   3.664   0.671   3.427  1.1027 -0.8871  2.4991
  199POPC  C21726617   3.617   0.516   3.569  0.7181 -0.3012  0.5699
  199POPC  H17R26618   3.656   0.415   3.544  0.3042 -0.4047  0.3301
  199POPC  H17S26619   3.518   0.487   3.610  0.2052  0.6487  0.0403
  199POPC  C21826620   3.701   0.590   3.671  0.0894  0.4267 -0.0342
  199POPC  H18R26621   3.797   0.598   3.616 -0.7989 -4.6229 -3.0559
  199POPC  H18S26622   3.713   0.522   3.758 -0.5181  1.5036  0.9078
  199POPC  H18T26623   3.655   0.685   3.703 -3.0502 -0.4926 -1.4001
  199POPC   C3326624   4.400  -0.042   2.425 -0.2915 -0.5209 -0.0527
  199POPC   H3X26625   4.299  -0.001   2.403 -1.7431 -3.6482  0.1402
  199POPC   H3Y26626   4.437   0.003   2.520  2.7164  0.2690 -1.4761
  199POPC   C3426627   4.389  -0.195   2.446  0.4099  0.1968 -0.6028
  199POPC   H4X26628   4.490  -0.235   2.470  0.1813  0.9027  1.8178
  199POPC   H4Y26629   4.364  -0.237   2.346  0.5261  1.2060 -1.0737
  199POPC   C3526630   4.297  -0.247   2.557  0.5124 -0.3456  0.0748
  199POPC   H5X26631   4.301  -0.358   2.552  2.0976 -0.2563 -2.6814
  199POPC   H5Y26632   4.199  -0.218   2.512  0.8859 -0.5914 -0.9119
  199POPC   C3626633   4.322  -0.193   2.699  1.0746  0.3466  0.0367
  199POPC   H6X26634   4.344  -0.086   2.681  0.0772  0.4562 -0.6119
  199POPC   H6Y26635   4.411  -0.248   2.737  1.3929  1.0762  0.3616
  199POPC   C3726636   4.209  -0.226   2.788  0.1616  0.5992 -0.4268
  199POPC   H7X26637   4.183  -0.334   2.774 -0.6477  1.0170 -2.5543
  199POPC   H7Y26638   4.117  -0.168   2.764 -0.3769 -0.4713 -1.0388
  199POPC   C3826639   4.255  -0.185   2.932  0.2755 -0.1451 -0.3387
  199POPC   H8X26640   4.295  -0.083   2.914 -0.7649  0.4894  0.7307
  199POPC   H8Y26641   4.331  -0.259   2.966  0.3839  0.0539 -0.1412
  199POPC   C3926642   4.131  -0.199   3.023  0.1213 -0.0299 -0.0889
  199POPC   H9X26643   4.074  -0.290   2.997 -1.1234  0.3310  1.2969
  199POPC   H9Y26644   4.064  -0.111   3.011  0.5049  0.5302  1.5987
  199POPC  C31026645   4.162  -0.215   3.174  0.1211 -0.4749  0.0208
  199POPC  H10X26646   4.229  -0.303   3.184  1.7717  0.4558 -2.0156
  199POPC  H10Y26647   4.072  -0.238   3.235  0.0335  0.4471  0.2497
  199POPC  C31126648   4.227  -0.090   3.247 -1.0925  0.3521 -0.5551
  199POPC  H11X26649   4.312  -0.052   3.187 -1.2684 -1.4700 -2.0532
  199POPC  H11Y26650   4.274  -0.117   3.343 -3.1377 -0.2718  0.3381
  199POPC  C31226651   4.124   0.019   3.277  0.6988  0.3342  0.0158
  199POPC  H12X26652   4.028  -0.026   3.313  0.4855 -0.4700 -1.4906
  199POPC  H12Y26653   4.105   0.070   3.181 -0.2216  2.3007  1.1700
  199POPC  C31326654   4.171   0.121   3.380 -0.5288 -0.3526 -0.2453
  199POPC  H13X26655   4.278   0.145   3.360 -0.4856  1.4568  1.8809
  199POPC  H13Y26656   4.175   0.070   3.479  3.4045  2.9628  1.5994
  199POPC  C31426657   4.086   0.243   3.383 -0.5740 -0.0944 -0.0295
  199POPC  H14X26658   4.059   0.279   3.281 -0.1714 -0.4804 -0.2731
  199POPC  H14Y26659   4.139   0.319   3.444 -0.5632 -0.3485  0.2792
  199POPC  C31526660   3.958   0.209   3.454  0.6531  0.1900  0.5278
  199POPC  H15X26661   3.915   0.109   3.432 -0.8698  0.3447  2.4928
  199POPC  H15Y26662   3.876   0.277   3.421  0.8126  0.3207  0.4004
  199POPC  C31626663   3.953   0.230   3.603  0.1649  0.1928  0.4140
  199POPC  H16X26664   3.956   0.335   3.641 -0.1004 -0.8508  3.5858
  199POPC  H16Y26665   4.036   0.170   3.646  0.7970  1.3057  0.7950
  199POPC  H16Z26666   3.857   0.185   3.636  1.0958 -2.1072  0.1690
  200POPC     N26667   6.978   7.468   1.794 -0.4196  0.7294  0.4232
  200POPC   C1226668   7.097   7.435   1.886  0.4729 -0.0206 -0.4479
  200POPC  H12A26669   7.099   7.505   1.968 -0.3150  1.0332 -1.2981
  200POPC  H12B26670   7.189   7.454   1.833  0.4443  1.7851  0.0925
  200POPC   C1326671   7.000   7.413   1.656  0.2879  0.3175  1.0156
  200POPC  H13A26672   7.004   7.305   1.655  1.3404  0.1606 -3.8406
  200POPC  H13B26673   6.916   7.438   1.592  0.6819  0.2872  0.4798
  200POPC  H13C26674   7.088   7.451   1.606  0.0955  0.0803  0.4945
  200POPC   C1426675   6.852   7.413   1.852  0.3238  0.1174  0.0720
  200POPC  H14A26676   6.844   7.307   1.870 -1.2886  0.1821 -0.1537
  200POPC  H14B26677   6.823   7.466   1.942 -0.0894 -0.9024  0.5507
  200POPC  H14C26678   6.779   7.436   1.776  1.1279  3.1550  0.0880
  200POPC   C1526679   6.972   7.618   1.790 -0.8823 -0.0083  0.0597
  200POPC  H15A26680   6.882   7.641   1.735 -1.2475  1.8369  1.3231
  200POPC  H15B26681   7.047   7.667   1.731 -1.1955  0.6701  0.2072
  200POPC  H15C26682   6.957   7.658   1.889 -1.2774  1.4254 -0.5481
  200POPC   C1126683   7.104   7.291   1.941 -0.0987 -1.2148 -0.0584
  200POPC  H11A26684   7.105   7.220   1.856  1.7319 -0.3171 -0.8543
  200POPC  H11B26685   7.026   7.279   2.018  1.4268  0.4666  1.8805
  200POPC     P26686   7.359   7.234   1.947  0.0169 -0.1982  0.0933
  200POPC   O1326687   7.395   7.335   1.846  0.4177 -0.3165  0.0256
  200POPC   O1426688   7.342   7.096   1.903 -0.3715 -0.2830  0.0353
  200POPC   O1226689   7.223   7.284   2.016 -0.5277 -0.0244 -0.1275
  200POPC   O1126690   7.457   7.235   2.067 -0.1926  0.0604  0.2957
  200POPC    C126691   7.493   7.359   2.125  0.3564  0.0914 -0.7455
  200POPC    HA26692   7.409   7.393   2.189  0.6714  3.1225 -1.7903
  200POPC    HB26693   7.509   7.442   2.053 -1.1762  0.7988 -0.2953
  200POPC    C226694   7.618   7.359   2.210  0.0374  0.2041 -0.1674
  200POPC    HS26695   7.703   7.335   2.143  0.5985 -1.0788  0.9639
  200POPC   O2126696   7.597   7.256   2.317 -0.7761 -0.6708 -0.5909
  200POPC   C2126697   7.711   7.208   2.360  0.1812 -0.8039  0.5042
  200POPC   O2226698   7.820   7.243   2.318 -0.1886  0.2642 -0.4954
  200POPC   C2226699   7.691   7.099   2.467  0.2728  0.0766  0.4063
  200POPC   H2R26700   7.674   7.005   2.410  1.8085 -0.2518  0.4518
  200POPC   H2S26701   7.594   7.119   2.519 -0.0162 -1.3103  0.4394
  200POPC    C326702   7.639   7.500   2.271  0.1124  0.2308 -0.3915
  200POPC    HX26703   7.661   7.563   2.183  2.2808 -0.5921 -0.5044
  200POPC    HY26704   7.728   7.502   2.337  0.3185 -1.3253 -0.5761
  200POPC   O3126705   7.517   7.549   2.330  0.7606 -0.3790 -0.2315
  200POPC   C3126706   7.512   7.541   2.455  0.0535 -0.3056  0.0396
  200POPC   O3226707   7.605   7.511   2.528  0.8592  0.2812  0.0034
  200POPC   C3226708   7.368   7.595   2.495 -0.1208  0.1599  0.0943
  200POPC   H2X26709   7.304   7.555   2.413  2.2026 -2.3141 -0.6567
  200POPC   H2Y26710   7.380   7.704   2.474  1.8599  0.0155  0.3196
  200POPC   C2326711   7.807   7.093   2.571  0.0685  0.1422  0.1720
  200POPC   H3R26712   7.900   7.073   2.512  0.8302  0.8335  1.0969
  200POPC   H3S26713   7.781   7.019   2.650 -0.2266  2.9003  2.8418
  200POPC   C2426714   7.832   7.222   2.648 -0.7939  0.2887  0.3544
  200POPC   H4R26715   7.825   7.310   2.581  1.3769 -0.9797 -1.6838
  200POPC   H4S26716   7.933   7.218   2.694 -1.0652 -1.7202  0.8574
  200POPC   C2526717   7.723   7.243   2.761 -0.2105 -0.1514 -0.0346
  200POPC   H5R26718   7.726   7.157   2.831  2.7673  0.6246  0.9176
  200POPC   H5S26719   7.621   7.249   2.717 -0.7628  0.3198  1.2605
  200POPC   C2626720   7.747   7.366   2.845 -0.4417  0.4116  0.3929
  200POPC   H6R26721   7.657   7.386   2.907  1.0553 -1.0978  3.2443
  200POPC   H6S26722   7.773   7.442   2.768  2.2825 -2.1934 -1.5261
  200POPC   C2726723   7.861   7.359   2.946 -0.3643 -0.7050  0.5315
  200POPC   H7R26724   7.953   7.322   2.896  1.7118 -2.0170  4.8007
  200POPC   H7S26725   7.843   7.285   3.027 -2.4647  0.9681  1.7062
  200POPC   C2826726   7.883   7.502   3.001 -0.5374  0.7763  0.3764
  200POPC   H8R26727   7.782   7.540   3.029 -1.4365 -0.2195 -1.3316
  200POPC   H8S26728   7.933   7.563   2.923  0.7947 -1.7249 -0.8550
  200POPC   C2926729   7.974   7.498   3.125 -0.6363  0.4089 -0.0476
  200POPC   H9126730   8.064   7.438   3.106 -0.4939  1.3572 -2.7921
  200POPC  C21026731   7.952   7.553   3.242 -0.0855 -0.5790 -0.3567
  200POPC  H10126732   8.031   7.537   3.316 -0.5188  0.5617  0.3774
  200POPC  C21126733   7.848   7.654   3.288  0.1383  0.4993 -0.0238
  200POPC  H11R26734   7.793   7.614   3.376 -1.6047  1.6451 -0.5299
  200POPC  H11S26735   7.769   7.664   3.209  0.6741 -0.5674 -0.7183
  200POPC  C21226736   7.904   7.789   3.319 -0.4712  0.0886  0.0238
  200POPC  H12R26737   7.964   7.824   3.232 -0.7943 -0.0669 -0.2640
  200POPC  H12S26738   7.979   7.774   3.400  1.5028 -2.1389 -2.0660
  200POPC  C21326739   7.804   7.899   3.358 -0.0347 -0.1316 -0.5007
  200POPC  H13R26740   7.854   7.974   3.424 -0.6823 -1.4249  1.5655
  200POPC  H13S26741   7.719   7.861   3.417  0.8139 -1.8628 -0.3380
  200POPC  C21426742   7.746   7.970   3.236  1.2756 -0.0560  0.9301
  200POPC  H14R26743   7.661   7.907   3.204  0.5282  0.9704  0.8311
  200POPC  H14S26744   7.829   7.974   3.163  1.0979  1.3393  0.7711
  200POPC  C21526745   7.685   8.105   3.278  0.1439  0.4864  0.9318
  200POPC  H15R26746   7.764   8.169   3.322 -0.1223  0.3861  1.5647
  200POPC  H15S26747   7.602   8.087   3.350 -1.1016 -0.3265 -0.6313
  200POPC  C21626748   7.626   8.179   3.157 -0.5034 -1.1024  0.2275
  200POPC  H16R26749   7.534   8.141   3.108 -0.4582  0.6074 -1.2797
  200POPC  H16S26750   7.702   8.180   3.076 -0.8305 -0.6400 -0.0746
  200POPC  C21726751   7.599   8.325   3.192  0.3960 -0.3515 -0.3471
  200POPC  H17R26752   7.539   8.365   3.108  0.1767  1.2758  0.5371
  200POPC  H17S26753   7.695   8.379   3.205  0.5175 -0.4633 -0.7651
  200POPC  C21826754   7.525   8.343   3.318  0.4216  0.0213 -0.9574
  200POPC  H18R26755   7.476   8.442   3.325 -0.2164  0.2427 -5.4225
  200POPC  H18S26756   7.589   8.324   3.406 -1.8924  0.9916  1.0636
  200POPC  H18T26757   7.439   8.272   3.314 -1.4034  1.9577  1.0905
  200POPC   C3326758   7.319   7.558   2.641 -0.5163 -0.0155 -0.1372
  200POPC   H3X26759   7.232   7.625   2.660 -1.1976 -1.1618  0.9788
  200POPC   H3Y26760   7.397   7.585   2.714  0.3935 -0.6121 -0.8693
  200POPC   C3426761   7.250   7.420   2.655 -0.6063  0.4356 -0.1385
  200POPC   H4X26762   7.331   7.345   2.640  0.9921  2.4220 -2.1891
  200POPC   H4Y26763   7.171   7.404   2.579  0.0067 -0.4673 -0.6059
  200POPC   C3526764   7.185   7.399   2.797 -0.0652  0.2752  0.2030
  200POPC   H5X26765   7.092   7.459   2.798 -0.7707 -0.7939  1.0119
  200POPC   H5Y26766   7.257   7.446   2.867  2.6269 -1.0439 -1.4846
  200POPC   C3626767   7.162   7.259   2.838 -0.1844  0.1415  0.5712
  200POPC   H6X26768   7.259   7.205   2.841 -1.6171 -2.8649 -1.3924
  200POPC   H6Y26769   7.110   7.195   2.762  0.4191  0.7703 -0.3889
  200POPC   C3726770   7.071   7.237   2.965  0.0262 -0.3914 -0.3909
  200POPC   H7X26771   7.116   7.299   3.046  1.0610 -1.2925 -0.2531
  200POPC   H7Y26772   7.074   7.130   2.996  0.3313 -0.3436 -0.2461
  200POPC   C3826773   6.926   7.275   2.947  0.2425  0.1884 -0.1469
  200POPC   H8X26774   6.880   7.204   2.875  1.3070 -1.2285  0.5338
  200POPC   H8Y26775   6.908   7.371   2.893  0.1288  2.2809  3.2795
  200POPC   C3926776   6.835   7.278   3.075  0.1142  0.2037 -0.4131
  200POPC   H9X26777   6.826   7.184   3.134 -1.6258  0.4835 -0.1727
  200POPC   H9Y26778   6.729   7.297   3.046  0.2737  1.5921 -0.1232
  200POPC  C31026779   6.870   7.394   3.170  0.0481 -0.3236 -0.2730
  200POPC  H10X26780   6.869   7.486   3.108 -0.7307  0.1680  0.4393
  200POPC  H10Y26781   6.969   7.378   3.217  0.2792  1.1246 -0.2386
  200POPC  C31126782   6.765   7.406   3.283 -0.1380 -0.2173  0.6082
  200POPC  H11X26783   6.775   7.315   3.345  0.8541  0.9547  2.2393
  200POPC  H11Y26784   6.664   7.402   3.236 -1.2469  1.7012  2.6341
  200POPC  C31226785   6.787   7.530   3.381  1.0100 -0.1261  0.2694
  200POPC  H12X26786   6.706   7.518   3.456  0.5160  0.5670 -0.1520
  200POPC  H12Y26787   6.772   7.624   3.324  1.2193 -1.1884 -1.5985
  200POPC  C31326788   6.924   7.526   3.444 -0.1623  0.0909 -0.1594
  200POPC  H13X26789   6.950   7.629   3.478 -1.0384  0.5850 -0.9222
  200POPC  H13Y26790   7.003   7.502   3.370  0.0059  1.2607 -0.3816
  200POPC  C31426791   6.937   7.412   3.546 -0.3729  0.2029  0.5188
  200POPC  H14X26792   6.935   7.310   3.504  1.6371 -0.5023  1.9702
  200POPC  H14Y26793   6.846   7.425   3.610 -0.7548 -0.5818  0.1411
  200POPC  C31526794   7.065   7.428   3.624 -0.4622  0.2640  0.2309
  200POPC  H15X26795   7.057   7.407   3.733 -1.3444  1.4649  0.4128
  200POPC  H15Y26796   7.100   7.533   3.615  1.0432 -0.2136  0.3026
  200POPC  C31626797   7.185   7.334   3.570  0.4511 -0.4643 -0.0206
  200POPC  H16X26798   7.158   7.226   3.567  0.5357 -0.4751 -2.7803
  200POPC  H16Y26799   7.274   7.340   3.636 -1.6909 -2.6493  3.4019
  200POPC  H16Z26800   7.204   7.368   3.466 -2.5799  0.6203 -0.3172
  201SOD    SOD26801   0.749   3.613   7.384  0.0560  0.1675  0.1325
  202SOD    SOD26802   1.505   1.314   0.206  0.0788 -0.2252  0.1074
  203SOD    SOD26803   5.000   4.986   2.370 -0.3425 -0.0501  0.1030
  204SOD    SOD26804   5.713   2.780   6.097 -0.7485 -0.6987 -0.4687
  205SOD    SOD26805   4.738   1.337   0.985  0.5524 -0.0098 -0.0754
  206SOD    SOD26806   5.873   5.374   0.522 -0.2018 -0.4281  0.3171
  207SOD    SOD26807   5.234   0.645   6.442 -0.2228 -0.0405 -0.1629
  208SOD    SOD26808   6.674   4.588   5.677  0.2041  0.1619  0.0040
  209SOD    SOD26809   3.356   5.855   0.123 -0.0189 -0.3589 -0.1368
  210SOD    SOD26810   3.133   6.363   0.289 -0.0419  0.1017 -0.1350
  211SOD    SOD26811   2.520   3.208   1.716  0.3772 -0.0866 -0.0623
  212SOD    SOD26812   5.625   6.209   7.595  0.6781  0.3668  0.0274
  213SOD    SOD26813   7.964   2.198   7.390  0.1707 -0.5789  0.2472
  214SOD    SOD26814   2.358   1.921   5.842 -0.4736  0.1372 -0.2560
  215SOD    SOD26815   7.609   2.840   2.295  0.2306 -0.2439 -0.5993
  216SOD    SOD26816   6.974   7.212   7.011 -0.0051  0.0616 -0.6978
  217SOD    SOD26817   8.107   2.314   1.315 -0.0612 -0.1053  0.0027
  218SOD    SOD26818   7.245   1.013   5.336 -0.2433 -0.6051 -0.3372
  219SOD    SOD26819   2.232   4.628   0.772 -0.7706 -0.7714  0.2104
  220SOD    SOD26820   3.375   5.597   1.716  0.2734 -0.0055 -0.7875
  221SOD    SOD26821   5.152   1.154   6.772  0.2389 -0.1390  0.1091
  222SOD    SOD26822   1.902   7.465   5.137 -0.3249  0.0683 -0.3942
  223CLA    CLA26823   0.630   2.470   6.979 -0.1247  0.0815  0.5628
  224CLA    CLA26824   5.739   3.782   7.393 -0.3128 -0.0419 -0.2172
  225CLA    CLA26825   1.578   2.006   0.920  0.0434 -0.0773 -0.2292
  226CLA    CLA26826   4.725   4.624   7.932 -0.1956  0.2147 -0.1811
  227CLA    CLA26827   4.108   1.899   0.511 -0.0739  0.4220  0.0196
  228CLA    CLA26828   6.115   5.318   6.339  0.7224  0.2489  0.2502
  229CLA    CLA26829   3.089   1.604   7.525  0.0428 -0.0449  0.4206
  230CLA    CLA26830   4.507   5.453   7.563 -0.0436  0.0026 -0.2538
  231CLA    CLA26831   6.666   5.357   0.498  0.0211 -0.1935 -0.1211
  232CLA    CLA26832   5.120   3.883   6.922  0.1501  0.0602  0.0710
  233CLA    CLA26833   2.635   0.324   6.440  0.1208  0.0636 -0.4183
  234CLA    CLA26834   3.002   2.228   0.403  0.2240  0.4967 -0.0756
  235CLA    CLA26835   0.380   2.557   1.248  0.0338 -0.0017  0.1958
  236CLA    CLA26836   4.378   1.961   0.898 -0.8609 -0.4006 -0.0094
  237CLA    CLA26837   7.270   2.512   1.318 -0.2143  0.3511  0.2470
  238CLA    CLA26838   1.381   7.683   7.624 -0.1183 -0.0195 -0.1033
  239CLA    CLA26839   1.961   3.885   0.958 -0.3127  0.1931  0.1129
  240CLA    CLA26840   4.907   1.074   6.686  0.2662  0.2149 -0.2151
  241CLA    CLA26841   2.973   5.391   7.757  0.4393  0.3828 -0.1490
  242CLA    CLA26842   6.113   3.747   0.034  0.4670 -0.5718  0.0588
  243CLA    CLA26843   0.384   0.708   0.833 -0.2626  0.2196  0.3615
  244CLA    CLA26844   7.345   8.027   7.365 -0.0713 -0.2095  0.1867
  245TIP3   OH226845   2.773   1.126   7.310 -0.2140  0.2772  0.0884
  245TIP3    H126846   2.855   1.154   7.350  0.4865 -1.2449 -0.2057
  245TIP3    H226847   2.789   1.130   7.215 -0.9567  1.2813 -0.0123
  246TIP3   OH226848   1.626   7.019   7.696 -0.0982 -0.2750  0.4552
  246TIP3    H126849   1.607   6.984   7.609  0.3807  2.8208 -1.0204
  246TIP3    H226850   1.542   7.016   7.742 -0.6298 -0.8562 -0.5259
  247TIP3   OH226851   6.205   5.225   5.662  0.5835  0.1830 -0.0360
  247TIP3    H126852   6.218   5.133   5.636 -1.7744 -0.3237  0.3772
  247TIP3    H226853   6.125   5.224   5.714  0.7597  2.4383  0.3585
  248TIP3   OH226854   5.555   2.717   7.932  0.0276 -0.3637 -0.3755
  248TIP3    H126855   5.588   2.666   8.006  0.4654  0.1099 -0.2338
  248TIP3    H226856   5.543   2.805   7.969  1.3226  0.1610 -1.1309
  249TIP3   OH226857   3.066   4.706   0.611  0.0221  0.2890 -0.3761
  249TIP3    H126858   3.139   4.766   0.594 -0.9416  0.8663 -3.0983
  249TIP3    H226859   3.089   4.626   0.564  0.6245 -1.0248  2.0204
  250TIP3   OH226860   7.933   6.357   2.068  0.2365  0.3895  0.2774
  250TIP3    H126861   7.871   6.421   2.034 -0.4852 -1.0412 -1.2100
  250TIP3    H226862   7.890   6.273   2.056 -0.1203 -0.3315  4.8368
  251TIP3   OH226863   2.059   3.731   7.593  0.4405 -0.2171 -0.7527
  251TIP3    H126864   2.094   3.667   7.531  1.7468  0.3944 -0.6845
  251TIP3    H226865   2.094   3.703   7.678  1.1410  0.6523 -0.7458
  252TIP3   OH226866   1.291   4.478   6.968 -0.4265  0.0685  0.0981
  252TIP3    H126867   1.375   4.516   6.994 -0.9317  0.8344  0.6364
  252TIP3    H226868   1.230   4.507   7.035 -1.2814  0.1375 -0.6917
  253TIP3   OH226869   7.283   1.939   5.556  0.3731  0.0542  0.1401
  253TIP3    H126870   7.361   1.888   5.576 -0.6435 -1.9197 -0.5763
  253TIP3    H226871   7.315   2.022   5.522  2.1823 -1.0666 -1.0242
  254TIP3   OH226872   7.860   2.231   5.968 -0.8406 -0.0847 -0.3606
  254TIP3    H126873   7.778   2.274   5.945 -0.6229  0.7948  0.4377
  254TIP3    H226874   7.927   2.279   5.919 -0.5600  0.7487  0.7801
  255TIP3   OH226875   3.319   7.838   5.826 -0.2441  0.5939 -0.5474
  255TIP3    H126876   3.253   7.825   5.757 -0.3942  0.2396 -0.3388
  255TIP3    H226877   3.401   7.813   5.785 -0.0849  1.9180 -1.1090
  256TIP3   OH226878   0.274   5.054   5.409  0.4742  0.0439  0.1936
  256TIP3    H126879   0.252   5.130   5.355 -1.4654  1.2706  2.4695
  256TIP3    H226880   0.344   5.085   5.467  0.1741 -0.1076  0.6486
  257TIP3   OH226881   6.600   1.628   6.734  0.1081  0.0114  0.0649
  257TIP3    H126882   6.637   1.687   6.799  1.5255  0.1340 -0.8148
  257TIP3    H226883   6.515   1.665   6.712  0.0484  0.5095  1.1053
  258TIP3   OH226884   1.035   1.077   1.254  0.3321  0.1665 -0.3147
  258TIP3    H126885   0.959   1.090   1.310  0.7363 -0.5178  0.4076
  258TIP3    H226886   1.100   1.140   1.286  0.7648 -0.6096  0.3813
  259TIP3   OH226887   0.166   5.767   0.923  1.2838  0.3118  0.1030
  259TIP3    H126888   0.250   5.733   0.893  0.4635 -0.6059 -1.3175
  259TIP3    H226889   0.115   5.780   0.843 -0.3523 -0.3822  0.9571
  260TIP3   OH226890   6.692   8.059   0.352  0.0439  0.5832 -0.2004
  260TIP3    H126891   6.746   8.071   0.273 -0.2119  0.7697 -0.3469
  260TIP3    H226892   6.658   8.146   0.371  1.3069  0.8620  0.9929
  261TIP3   OH226893   0.782   2.899   0.960 -0.1961 -0.0470 -0.1797
  261TIP3    H126894   0.698   2.862   0.985 -0.9048  1.1658 -0.7133
  261TIP3    H226895   0.798   2.865   0.871  0.4006 -1.1048  0.3046
  262TIP3   OH226896   2.594   5.826   6.791  0.2499 -0.3116 -0.1344
  262TIP3    H126897   2.648   5.757   6.831  0.4736 -0.0462  0.0228
  262TIP3    H226898   2.614   5.820   6.697  1.0475  0.2111 -0.0061
  263TIP3   OH226899   7.117   1.331   6.186  0.0609  0.3869  0.1562
  263TIP3    H126900   7.137   1.397   6.120  0.9844  1.6958  1.6516
  263TIP3    H226901   7.041   1.366   6.233  1.4142  1.1467  1.8670
  264TIP3   OH226902   7.744   5.337   7.308 -0.1393 -0.1465  0.3191
  264TIP3    H126903   7.711   5.248   7.302 -1.1382  0.2314 -0.0335
  264TIP3    H226904   7.837   5.330   7.287 -0.3229 -1.0224 -0.2543
  265TIP3   OH226905   0.136   2.789   1.341 -0.4186  0.3782 -0.3853
  265TIP3    H126906   0.222   2.765   1.306  0.2728  1.1699  0.6748
  265TIP3    H226907   0.134   2.884   1.337 -1.9441  0.3312 -1.8871
  266TIP3   OH226908   7.365   1.443   1.427  0.2456 -0.6751 -0.0238
  266TIP3    H126909   7.361   1.360   1.379  0.4914 -0.9928  0.4994
  266TIP3    H226910   7.376   1.418   1.518  3.6368 -0.0911 -0.1396
  267TIP3   OH226911   1.478   1.679   7.783 -0.2357  0.0112  0.0922
  267TIP3    H126912   1.538   1.636   7.722 -0.5052  0.4454 -0.4870
  267TIP3    H226913   1.510   1.770   7.787 -0.1628 -0.0368  0.6734
  268TIP3   OH226914   4.592   7.224   7.150 -0.6780 -0.5092 -0.1757
  268TIP3    H126915   4.551   7.147   7.190  0.9587 -1.1237  0.4014
  268TIP3    H226916   4.554   7.298   7.197  1.0756 -1.1998  2.5908
  269TIP3   OH226917   6.248   7.135   6.933 -0.1754  0.4362  0.0450
  269TIP3    H126918   6.343   7.136   6.932 -0.1523 -0.5479 -0.0902
  269TIP3    H226919   6.224   7.060   6.878 -1.0161  0.4770  0.3379
  270TIP3   OH226920   6.561   2.020   7.221 -0.3012 -0.1228  0.7193
  270TIP3    H126921   6.608   2.099   7.247 -0.3179  0.0219  0.3209
  270TIP3    H226922   6.609   1.949   7.262 -0.4340  0.1086  1.2908
  271TIP3   OH226923   1.719   1.029   7.775 -0.4649 -0.3178  0.3190
  271TIP3    H126924   1.783   1.010   7.844 -0.2665 -1.1451 -0.0752
  271TIP3    H226925   1.634   1.010   7.816 -0.2822 -2.0867 -0.0244
  272TIP3   OH226926   4.270   6.365   0.148 -0.7020  0.2023 -0.0166
  272TIP3    H126927   4.247   6.384   0.057 -0.5073  1.5302  0.1892
  272TIP3    H226928   4.199   6.404   0.199  0.4336  1.7137  0.4883
  273TIP3   OH226929   6.814   5.331   6.735 -0.1780 -0.0504  0.0481
  273TIP3    H126930   6.860   5.407   6.771 -1.2610  0.3893  0.5773
  273TIP3    H226931   6.810   5.347   6.641 -1.0601  0.9668  0.2341
  274TIP3   OH226932   6.837   5.345   0.804 -0.3407 -0.2739 -0.1851
  274TIP3    H126933   6.926   5.314   0.820  0.1232  1.4171  0.7852
  274TIP3    H226934   6.816   5.314   0.716  0.6100 -2.0069  0.1591
  275TIP3   OH226935   0.850   3.412   6.758  0.1381  0.3507 -0.2881
  275TIP3    H126936   0.798   3.430   6.679 -2.5675 -0.2126  1.2564
  275TIP3    H226937   0.852   3.317   6.764  1.8149  0.3290 -0.5200
  276TIP3   OH226938   7.827   5.714   1.933  0.6878  0.5391 -0.0090
  276TIP3    H126939   7.887   5.707   1.858  2.9360  1.0240  1.6641
  276TIP3    H226940   7.784   5.798   1.921 -0.4410 -0.2119 -1.7136
  277TIP3   OH226941   6.057   5.659   1.339  0.1612 -0.1093  0.6487
  277TIP3    H126942   5.990   5.718   1.304  1.6290  1.0852 -0.2450
  277TIP3    H226943   6.009   5.579   1.361 -1.6317  0.8800  0.5029
  278TIP3   OH226944   4.903   0.801   0.029 -0.1118  0.0698  0.5247
  278TIP3    H126945   4.894   0.706   0.041  1.1900 -0.1474 -0.0407
  278TIP3    H226946   4.819   0.828  -0.006 -0.6265 -0.8199  1.0226
  279TIP3   OH226947   1.053   4.000   0.683 -0.1203 -0.6310  0.4615
  279TIP3    H126948   1.109   4.027   0.611 -0.8682 -1.2472 -0.3762
  279TIP3    H226949   0.994   3.935   0.645 -1.3784 -0.0399  1.3124
  280TIP3   OH226950   4.871   2.301   2.053 -0.1891  0.6282 -0.6024
  280TIP3    H126951   4.778   2.292   2.074 -0.0160  0.0490 -0.0464
  280TIP3    H226952   4.875   2.374   1.992 -1.0684  0.3314 -1.0277
  281TIP3   OH226953   5.894   3.242   7.600  0.3191 -0.5627  0.0442
  281TIP3    H126954   5.880   3.149   7.618 -1.3509 -0.9112 -2.5287
  281TIP3    H226955   5.814   3.270   7.556 -0.0616  2.6371  2.3671
  282TIP3   OH226956   5.794   4.007   6.973 -0.4241 -0.1825 -0.4289
  282TIP3    H126957   5.781   3.931   6.916 -0.0763 -2.1889  1.9914
  282TIP3    H226958   5.853   3.975   7.042 -0.9312  2.0514  1.1349
  283TIP3   OH226959   7.622   1.048   2.466  0.2204  0.1281 -0.1033
  283TIP3    H126960   7.613   1.134   2.506  1.6818  0.3325 -0.1565
  283TIP3    H226961   7.596   0.987   2.535  0.3254  0.5664  0.3309
  284TIP3   OH226962   4.811   3.135   2.021 -0.3012 -0.7788  0.7819
  284TIP3    H126963   4.885   3.080   1.998  0.2605  0.4814 -0.6383
  284TIP3    H226964   4.833   3.170   2.107  0.7139 -0.5321  0.4422
  285TIP3   OH226965   4.861   7.842   6.926  0.0317  0.6094  0.0449
  285TIP3    H126966   4.890   7.779   6.861  0.8468  1.7863 -0.7672
  285TIP3    H226967   4.871   7.797   7.010 -0.6889 -0.7957 -0.5868
  286TIP3   OH226968   6.003   0.678   7.706 -0.0552  0.4427 -0.5649
  286TIP3    H126969   5.942   0.643   7.771  1.8617  1.3798  1.9156
  286TIP3    H226970   6.048   0.750   7.751  2.4692  0.1812 -2.4022
  287TIP3   OH226971   5.976   4.204   0.534 -0.2578 -0.2451 -0.3171
  287TIP3    H126972   6.041   4.137   0.552 -1.5624 -1.3352  0.4836
  287TIP3    H226973   5.902   4.183   0.591 -1.2510  1.0645 -1.0448
  288TIP3   OH226974   4.180   0.164   0.400  0.2112 -0.0604  0.1361
  288TIP3    H126975   4.206   0.256   0.398 -1.4475  0.4310 -0.6440
  288TIP3    H226976   4.260   0.116   0.380  0.8525  1.2810 -0.6496
  289TIP3   OH226977   2.732   4.943   0.861 -0.0519  0.2024 -0.6194
  289TIP3    H126978   2.755   4.984   0.944 -1.1462 -2.6217  1.2149
  289TIP3    H226979   2.816   4.932   0.816  0.6905  0.8085  0.5649
  290TIP3   OH226980   6.092   5.063   6.149  0.0397 -0.3972  0.3067
  290TIP3    H126981   6.049   5.014   6.219  0.4464 -0.8976  0.2089
  290TIP3    H226982   6.124   5.142   6.191 -0.2761 -0.3980  0.5503
  291TIP3   OH226983   3.018   1.822   7.275 -0.4674 -0.3046 -0.4839
  291TIP3    H126984   2.970   1.896   7.311  1.9337  2.3887 -2.3356
  291TIP3    H226985   3.025   1.759   7.347 -4.4438  0.1776  0.5482
  292TIP3   OH226986   1.894   1.205   7.606 -0.0101  0.2261 -0.3462
  292TIP3    H126987   1.916   1.169   7.521  3.3045 -2.5283  1.4397
  292TIP3    H226988   1.842   1.137   7.649 -0.3638  0.9328  0.3991
  293TIP3   OH226989   6.883   3.839   7.470  0.1616  0.9656 -0.0167
  293TIP3    H126990   6.889   3.852   7.376 -2.4770  1.0336 -0.2664
  293TIP3    H226991   6.801   3.791   7.482  0.3031  1.1844  2.2678
  294TIP3   OH226992   0.070   4.908   1.293 -0.8328 -0.0163  0.3582
  294TIP3    H126993   0.081   4.813   1.282 -0.1452  0.1806 -1.0210
  294TIP3    H226994  -0.012   4.928   1.248  0.6482  0.4302 -2.3924
  295TIP3   OH226995   2.827   2.177   6.318  0.1752  1.0693  0.1812
  295TIP3    H126996   2.919   2.191   6.294  0.1823 -0.2752 -0.7223
  295TIP3    H226997   2.787   2.142   6.238 -0.8993  0.7183  0.8516
  296TIP3   OH226998   7.853   7.556   6.787  0.6236 -0.6304  0.2323
  296TIP3    H126999   7.899   7.567   6.870  0.1189 -1.1926  0.5979
  296TIP3    H227000   7.782   7.494   6.807  0.9262 -1.3315 -0.7802
  297TIP3   OH227001   6.697   7.942   6.923  0.4936  0.3240 -0.1293
  297TIP3    H127002   6.608   7.928   6.891  1.1107  0.6639 -2.1581
  297TIP3    H227003   6.686   7.981   7.009 -1.3235  0.5204 -0.4120
  298TIP3   OH227004   2.476   0.049   6.555 -0.1022  0.1515  0.3075
  298TIP3    H127005   2.510   0.137   6.574  1.5174 -0.2635 -0.4130
  298TIP3    H227006   2.467   0.048   6.460  0.1117 -0.5171  0.2890
  299TIP3   OH227007   0.590   1.843   7.636  0.0392 -0.0415 -0.3631
  299TIP3    H127008   0.577   1.749   7.651  0.3832 -0.1128 -0.5081
  299TIP3    H227009   0.503   1.876   7.612  0.0125 -0.4128 -0.7871
  300TIP3   OH227010   3.049   4.164   0.648  0.3892 -0.0290 -0.0843
  300TIP3    H127011   2.963   4.132   0.675  1.1215 -0.3697  2.0527
  300TIP3    H227012   3.045   4.168   0.552 -2.2372  0.6950 -0.0062
  301TIP3   OH227013   5.771   0.062   0.116 -0.4099  0.5271  0.0632
  301TIP3    H127014   5.836  -0.001   0.085 -0.6837  0.6219 -0.7204
  301TIP3    H227015   5.733   0.099   0.036 -0.7331  1.1899  0.5131
  302TIP3   OH227016   6.849   2.004   0.396 -0.7348 -0.0321  0.5978
  302TIP3    H127017   6.910   2.032   0.464 -0.7031  1.6427 -0.0765
  302TIP3    H227018   6.764   1.999   0.440 -0.2556 -1.8816  1.4207
  303TIP3   OH227019   5.887   7.707   0.825 -0.1689 -0.0020 -0.6691
  303TIP3    H127020   5.894   7.801   0.839 -1.7676  0.1276 -0.5308
  303TIP3    H227021   5.969   7.683   0.782  0.3108  1.4218 -0.6067
  304TIP3   OH227022   7.892   1.778   6.321 -0.5586  0.4031  0.2278
  304TIP3    H127023   7.802   1.796   6.347 -0.6086  0.6890 -0.1414
  304TIP3    H227024   7.917   1.853   6.267  0.2356  0.8219  1.1502
  305TIP3   OH227025   1.779   4.726   6.259  0.0764  0.1749 -1.1743
  305TIP3    H127026   1.750   4.774   6.181  1.2356  0.5982 -1.3744
  305TIP3    H227027   1.789   4.793   6.326 -0.0186 -0.0510 -0.9336
  306TIP3   OH227028   6.778   7.991   5.935  0.2126  0.5039 -0.3115
  306TIP3    H127029   6.823   8.011   6.017 -1.1050 -1.2145  0.8944
  306TIP3    H227030   6.832   8.032   5.868  0.3250  3.6385  1.4989
  307TIP3   OH227031   0.828   0.153   6.344 -0.1988  0.4598 -0.0368
  307TIP3    H127032   0.901   0.149   6.407 -0.0944  1.2665 -0.0956
  307TIP3    H227033   0.752   0.123   6.394  0.1385 -0.2531  0.0646
  308TIP3   OH227034   5.364   7.167   6.584 -0.7127 -0.7207 -0.3851
  308TIP3    H127035   5.416   7.087   6.571 -0.7029 -0.7671 -0.0642
  308TIP3    H227036   5.403   7.208   6.661 -0.2720 -0.0500 -0.9540
  309TIP3   OH227037   5.545   0.063   6.636  0.1562  0.3287 -1.1743
  309TIP3    H127038   5.608   0.134   6.628 -0.7828  1.2381 -0.7585
  309TIP3    H227039   5.540   0.045   6.730  0.4760 -0.3777 -1.2852
  310TIP3   OH227040   0.226   5.896   6.827  0.4343  0.4625 -0.0188
  310TIP3    H127041   0.252   5.807   6.849 -0.7136  0.5654  1.9872
  310TIP3    H227042   0.308   5.945   6.823  1.0730 -0.6508 -1.1350
  311TIP3   OH227043   2.349   3.348   7.641  0.2495  0.3164  0.0335
  311TIP3    H127044   2.317   3.424   7.691 -0.2108 -0.2206  0.5644
  311TIP3    H227045   2.356   3.278   7.706  0.2666 -0.2157 -0.5417
  312TIP3   OH227046   6.272   1.192   2.155 -0.3763  1.0919 -0.5482
  312TIP3    H127047   6.184   1.217   2.128 -0.8412  0.2442  0.1723
  312TIP3    H227048   6.314   1.163   2.074 -0.6689  1.7078 -0.9337
  313TIP3   OH227049   7.579   7.665   1.179  0.7805 -0.0572 -0.2673
  313TIP3    H127050   7.492   7.663   1.141  0.6762 -1.7076 -0.0423
  313TIP3    H227051   7.588   7.753   1.214 -0.4936  0.3765 -0.9562
  314TIP3   OH227052   4.935   3.926   1.810 -0.2210  0.2854 -0.2127
  314TIP3    H127053   4.922   4.015   1.844 -0.7015 -0.0027  0.3651
  314TIP3    H227054   4.867   3.874   1.852 -0.1947 -0.2785 -0.8609
  315TIP3   OH227055   5.118   4.774   6.559 -0.1122  0.2999 -0.3708
  315TIP3    H127056   5.143   4.682   6.548  1.5856  0.9814 -3.4023
  315TIP3    H227057   5.185   4.810   6.618  0.3745 -0.0014 -0.7317
  316TIP3   OH227058   1.265   0.863   7.140  0.7590 -0.0472  0.3970
  316TIP3    H127059   1.207   0.939   7.131  1.7295  0.6348 -0.2745
  316TIP3    H227060   1.314   0.861   7.058  0.1461 -1.9452  0.0236
  317TIP3   OH227061   3.346   2.429   7.277 -0.4145 -0.7210 -0.0105
  317TIP3    H127062   3.386   2.364   7.335  1.5628  0.3983 -0.0547
  317TIP3    H227063   3.403   2.505   7.282 -1.8079  0.4669 -1.1920
  318TIP3   OH227064   1.582   5.308   1.665  0.4416 -0.5415  0.0873
  318TIP3    H127065   1.675   5.303   1.688  0.3056  1.9456  1.4968
  318TIP3    H227066   1.582   5.323   1.571  1.4873 -0.1748  0.1311
  319TIP3   OH227067   4.061   4.926   6.567 -0.6059 -0.1015  0.1645
  319TIP3    H127068   4.001   4.935   6.493 -2.1666  0.0940  1.4032
  319TIP3    H227069   4.042   5.002   6.622 -0.6156 -1.0900  1.5520
  320TIP3   OH227070   6.524   1.114   7.521 -0.5456 -0.0860 -0.3706
  320TIP3    H127071   6.465   1.139   7.592 -0.7749  0.0288 -0.5992
  320TIP3    H227072   6.470   1.060   7.463 -0.4126 -0.0208 -0.5561
  321TIP3   OH227073   4.733   3.242   6.993  0.0713  0.3621 -0.2128
  321TIP3    H127074   4.774   3.257   7.078 -1.0359 -0.5834  0.5171
  321TIP3    H227075   4.643   3.273   7.004 -0.9825 -2.4574 -0.0326
  322TIP3   OH227076   5.118   3.594   2.192 -0.0986  0.1191 -0.1536
  322TIP3    H127077   5.080   3.625   2.274  0.4857  0.5252 -0.0374
  322TIP3    H227078   5.042   3.577   2.136 -0.5179 -0.5211  0.5906
  323TIP3   OH227079   4.527   7.223   5.964 -0.0953 -0.3665 -0.0297
  323TIP3    H127080   4.595   7.258   6.023  0.5720 -1.5869 -0.0423
  323TIP3    H227081   4.477   7.300   5.938  0.0840  0.3198  1.5059
  324TIP3   OH227082   6.575   2.861   7.567  0.1248  0.6666  0.3874
  324TIP3    H127083   6.626   2.811   7.503  1.7555  2.3657  0.2567
  324TIP3    H227084   6.486   2.830   7.557  0.7356 -0.7077 -1.1311
  325TIP3   OH227085   1.079   5.715   7.940  0.0760 -0.4602  1.2394
  325TIP3    H127086   1.123   5.675   7.865  1.6012  0.0372  1.8245
  325TIP3    H227087   0.990   5.681   7.936  0.4061 -1.2621 -0.1902
  326TIP3   OH227088   6.776   5.590   0.709  0.4023 -0.3777  0.2758
  326TIP3    H127089   6.820   5.516   0.751  1.6700 -0.3595 -0.9509
  326TIP3    H227090   6.743   5.555   0.627 -2.7705 -0.6215  1.4988
  327TIP3   OH227091   5.056   0.061   6.182  0.6299 -0.2038 -0.2277
  327TIP3    H127092   5.116   0.037   6.252  2.4853  2.5248 -0.7523
  327TIP3    H227093   5.109   0.054   6.102 -0.3764  0.2220 -0.9475
  328TIP3   OH227094   0.199   1.124   7.264 -0.2471 -0.5174 -0.0377
  328TIP3    H127095   0.109   1.148   7.241 -0.2929 -1.7253 -1.2584
  328TIP3    H227096   0.227   1.067   7.192  1.9114  0.7510 -0.2811
  329TIP3   OH227097   3.459   5.919   7.599 -0.2918 -0.1452 -0.0067
  329TIP3    H127098   3.479   5.835   7.640 -0.2122  0.4867  1.2906
  329TIP3    H227099   3.507   5.918   7.516 -0.4356 -1.4374 -0.0836
  330TIP3   OH227100   0.335   6.486   6.937 -0.1556  0.4023  0.0237
  330TIP3    H127101   0.317   6.396   6.964 -2.1926  1.0263  0.9361
  330TIP3    H227102   0.429   6.498   6.954  0.4019 -1.8309 -1.0868
  331TIP3   OH227103   7.211   5.537   7.852 -0.7471  0.1797 -1.2745
  331TIP3    H127104   7.218   5.619   7.899 -0.5440  0.7438 -2.2654
  331TIP3    H227105   7.301   5.514   7.827 -0.7318 -0.6453 -0.5151
  332TIP3   OH227106   4.991   0.850   0.902  0.1769  0.2375  0.2823
  332TIP3    H127107   5.060   0.885   0.846  0.4242 -0.9305 -0.1759
  332TIP3    H227108   4.914   0.903   0.881  0.4385  0.2577 -0.6767
  333TIP3   OH227109   6.666   6.447   0.045  0.3763  0.1164 -0.0072
  333TIP3    H127110   6.738   6.420   0.102  1.1423  2.0432  0.0430
  333TIP3    H227111   6.627   6.521   0.091  0.8161  1.5259 -1.7784
  334TIP3   OH227112   0.528   7.694   1.518  0.7409  0.1941 -0.2513
  334TIP3    H127113   0.507   7.785   1.539  0.8246 -0.3443  2.6759
  334TIP3    H227114   0.447   7.646   1.532  0.7618 -0.2398 -1.5136
  335TIP3   OH227115   6.270   2.238   6.233  0.1141  0.5420  0.0192
  335TIP3    H127116   6.344   2.178   6.239 -0.2429  0.1229  0.3139
  335TIP3    H227117   6.309   2.322   6.210  0.5846  0.1249 -0.7479
  336TIP3   OH227118   2.379   2.424   7.592 -0.7282 -0.2684  0.0424
  336TIP3    H127119   2.456   2.479   7.578 -0.6904 -0.0788  0.9652
  336TIP3    H227120   2.356   2.392   7.504 -0.7709  1.2291 -0.5075
  337TIP3   OH227121   2.492   2.986   5.501 -0.3362  0.3348 -0.5253
  337TIP3    H127122   2.526   3.069   5.535 -2.3136  0.7459  0.5635
  337TIP3    H227123   2.547   2.968   5.425 -0.1908  2.9182 -1.1254
  338TIP3   OH227124   3.931   1.517   7.321  0.1881  0.4155 -0.1477
  338TIP3    H127125   3.868   1.461   7.368 -1.4247  3.1260  1.2341
  338TIP3    H227126   3.895   1.524   7.233 -0.3070  0.2470  0.0318
  339TIP3   OH227127   0.167   0.735   6.655 -0.5181  0.0926  0.1432
  339TIP3    H127128   0.102   0.666   6.644 -0.1491 -0.4972  1.4801
  339TIP3    H227129   0.249   0.689   6.671  0.1311  0.8342 -0.9537
  340TIP3   OH227130   2.290   7.015   5.350  0.3811  0.3708  0.0655
  340TIP3    H127131   2.268   7.106   5.334 -2.2287 -0.1798  0.1554
  340TIP3    H227132   2.356   7.018   5.420 -1.4760  2.1463  1.8724
  341TIP3   OH227133   2.738   4.639   1.685 -0.7220  0.1400  0.0916
  341TIP3    H127134   2.740   4.731   1.660 -1.2199  0.1265 -0.0011
  341TIP3    H227135   2.820   4.625   1.732 -0.4067  0.5013 -0.3452
  342TIP3   OH227136   3.747   4.481   6.816  0.0411  0.0699  0.1227
  342TIP3    H127137   3.705   4.454   6.898 -0.0746  0.6345  0.2549
  342TIP3    H227138   3.777   4.399   6.776 -0.7032 -0.2956  0.2934
  343TIP3   OH227139   0.655   3.096   1.295 -0.3457 -0.1930  0.1591
  343TIP3    H127140   0.722   3.113   1.229  0.2468 -1.8649  0.2870
  343TIP3    H227141   0.606   3.178   1.301  1.6334  1.0628  0.0132
  344TIP3   OH227142   3.332   2.006   6.192  0.1585 -0.1852  0.2748
  344TIP3    H127143   3.388   2.070   6.148 -0.7261  1.0943  0.9549
  344TIP3    H227144   3.328   1.933   6.131  3.6024 -0.9231  0.7484
  345TIP3   OH227145   2.141   3.972   5.911  0.6128  0.0057  0.3273
  345TIP3    H127146   2.227   3.941   5.939  0.5704 -1.0641 -0.6341
  345TIP3    H227147   2.155   4.006   5.822  0.3112  1.1778  0.7050
  346TIP3   OH227148   4.459   3.945   7.521 -0.0229 -0.0578 -0.0940
  346TIP3    H127149   4.477   3.873   7.462  2.6850  0.5780 -0.1839
  346TIP3    H227150   4.370   3.974   7.498 -1.0143 -2.9668 -0.3535
  347TIP3   OH227151   0.919   6.417   0.029  0.2904 -0.3135 -0.0188
  347TIP3    H127152   0.966   6.455  -0.045  0.5065 -0.0170  0.2689
  347TIP3    H227153   0.960   6.455   0.107 -0.9966  0.6336  0.2263
  348TIP3   OH227154   4.925   4.592   0.699 -0.2428 -0.4765  0.1997
  348TIP3    H127155   4.865   4.635   0.760 -0.0869 -0.1140  0.0994
  348TIP3    H227156   4.935   4.655   0.627 -0.0146 -0.6805  0.0516
  349TIP3   OH227157   3.555   3.620   6.282 -0.3662 -0.9660 -0.2267
  349TIP3    H127158   3.487   3.659   6.227  0.3059 -1.6264 -1.5972
  349TIP3    H227159   3.592   3.550   6.227  1.0907 -0.9209  0.6500
  350TIP3   OH227160   0.050   4.523   7.686 -0.1856 -0.4345 -0.6947
  350TIP3    H127161  -0.020   4.475   7.643 -0.0594 -1.9673  0.7003
  350TIP3    H227162   0.109   4.455   7.719  0.6808  0.7353  0.2778
  351TIP3   OH227163   5.389   4.137   2.423  0.3174  0.0317  0.3564
  351TIP3    H127164   5.363   4.066   2.364  0.7757  0.4482 -0.3611
  351TIP3    H227165   5.366   4.217   2.376 -0.0004  0.3628  1.0714
  352TIP3   OH227166   5.664   6.415   1.787  0.1447 -0.4947  0.5434
  352TIP3    H127167   5.711   6.494   1.762  2.5803 -1.3615  2.0525
  352TIP3    H227168   5.583   6.447   1.828  0.1479  1.0990 -0.6113
  353TIP3   OH227169   1.682   6.619   7.018 -0.7414 -0.2706 -0.1012
  353TIP3    H127170   1.702   6.625   6.924 -0.6578  2.0356  0.0026
  353TIP3    H227171   1.662   6.709   7.044 -0.3242 -0.7805  2.2124
  354TIP3   OH227172   0.862   2.961   5.583 -0.2706 -0.8181 -0.1037
  354TIP3    H127173   0.901   2.873   5.580  1.9773  0.1187  0.4939
  354TIP3    H227174   0.922   3.013   5.635 -2.2107  0.8201  0.6328
  355TIP3   OH227175   4.496   5.255   0.224 -0.3488  0.6737 -0.1780
  355TIP3    H127176   4.586   5.286   0.235 -0.3779  0.0250  2.8119
  355TIP3    H227177   4.502   5.185   0.159  0.8868  2.0726 -1.6482
  356TIP3   OH227178   3.257   3.578   7.027  0.1845 -0.3738  0.0350
  356TIP3    H127179   3.273   3.524   7.104  2.2720  0.4437  0.2230
  356TIP3    H227180   3.319   3.650   7.034 -1.4773  1.2293 -1.0122
  357TIP3   OH227181   5.662   0.900   2.338  0.0619  0.3549 -0.0621
  357TIP3    H127182   5.648   0.915   2.431 -0.0177 -0.0493 -0.0043
  357TIP3    H227183   5.661   0.987   2.299 -0.6668  0.4776  0.2142
  358TIP3   OH227184   1.991   7.435   1.218 -0.6104 -0.5850  0.1018
  358TIP3    H127185   1.987   7.445   1.123 -1.0347 -0.0993  0.1701
  358TIP3    H227186   1.902   7.414   1.244 -0.3766 -1.3212  0.3331
  359TIP3   OH227187   4.128   8.083   7.755  0.3241  0.1757 -1.1271
  359TIP3    H127188   4.104   8.044   7.671  1.0240  0.7802 -1.6225
  359TIP3    H227189   4.047   8.120   7.789 -0.1655 -0.9230 -1.0733
  360TIP3   OH227190   1.497   3.527   0.813  0.3397  0.7437 -0.9266
  360TIP3    H127191   1.500   3.435   0.839 -0.2997  1.2119  0.9157
  360TIP3    H227192   1.565   3.569   0.866 -1.5327  1.8620  0.7088
  361TIP3   OH227193   0.274   6.903   6.225 -0.0329 -0.4224 -0.3519
  361TIP3    H127194   0.333   6.898   6.150 -0.2887 -1.0972 -0.5199
  361TIP3    H227195   0.273   6.995   6.249  0.9783 -0.3781 -0.4308
  362TIP3   OH227196   2.336   1.232   0.281  0.5993  0.2079 -0.4550
  362TIP3    H127197   2.430   1.242   0.299  0.8494  1.4354 -2.1781
  362TIP3    H227198   2.298   1.316   0.309  0.1276 -0.0137 -0.4324
  363TIP3   OH227199   7.334   0.048   1.188 -0.4300 -0.0783  0.1162
  363TIP3    H127200   7.368   0.021   1.273  0.6190  0.5465 -0.0872
  363TIP3    H227201   7.286   0.129   1.207 -1.5769 -0.7760  0.3453
  364TIP3   OH227202   3.123   4.563   6.069  0.7133  0.3337 -0.4043
  364TIP3    H127203   3.161   4.497   6.126 -0.9750  0.7756  1.3297
  364TIP3    H227204   3.171   4.554   5.986  1.4139 -2.1398  0.2007
  365TIP3   OH227205   1.653   0.845   2.304 -0.1168  0.5189 -0.5732
  365TIP3    H127206   1.722   0.910   2.292 -0.0130  0.3170 -1.1270
  365TIP3    H227207   1.699   0.762   2.315 -0.2611  0.1837 -2.2141
  366TIP3   OH227208   0.618   4.044   6.847  0.0829  0.3784  0.1252
  366TIP3    H127209   0.587   4.087   6.927 -1.1827 -1.1668  0.5379
  366TIP3    H227210   0.693   3.992   6.875  0.5000  0.8974 -0.0038
  367TIP3   OH227211   4.918   3.352   7.592 -0.1383  0.3527  0.0035
  367TIP3    H127212   5.009   3.351   7.564 -0.3892 -1.0898 -0.9094
  367TIP3    H227213   4.892   3.444   7.588  0.6848  0.5515 -1.7484
  368TIP3   OH227214   5.192   7.011   7.864 -0.1799  1.1187  0.1230
  368TIP3    H127215   5.195   7.093   7.815 -1.0491  1.1116  0.0369
  368TIP3    H227216   5.106   7.011   7.906 -1.3541 -0.9331 -2.0249
  369TIP3   OH227217   2.075   7.656   6.740  0.4857 -0.0923 -0.2864
  369TIP3    H127218   2.155   7.606   6.723  0.7092 -0.0912  0.6893
  369TIP3    H227219   2.074   7.667   6.835  0.1377  1.2730 -0.4348
  370TIP3   OH227220   5.195   0.245   0.265  0.7123  0.2429  0.5457
  370TIP3    H127221   5.287   0.264   0.247  0.1554  0.5621 -2.5940
  370TIP3    H227222   5.187   0.150   0.250  0.6541  0.0815  1.5520
  371TIP3   OH227223   5.497   7.337   0.861  0.3624 -0.3188 -0.4153
  371TIP3    H127224   5.511   7.431   0.870 -0.8502 -0.0808 -0.7340
  371TIP3    H227225   5.536   7.299   0.939 -1.6686  0.7599  1.2555
  372TIP3   OH227226   3.516   0.587   0.309  0.0025  0.4332  0.3431
  372TIP3    H127227   3.491   0.633   0.389  1.3392  0.9641  0.4757
  372TIP3    H227228   3.443   0.527   0.292 -0.6434  0.8553  1.5268
  373TIP3   OH227229   8.045   0.477   7.451 -0.0932 -0.5048 -0.7169
  373TIP3    H127230   8.071   0.482   7.359  1.1425 -0.1834 -0.3638
  373TIP3    H227231   8.075   0.559   7.490 -2.3138  0.2425 -0.4155
  374TIP3   OH227232   6.733   1.278   6.683  0.1234  0.0546  0.3750
  374TIP3    H127233   6.818   1.295   6.643  0.7653  0.5828  1.8815
  374TIP3    H227234   6.670   1.315   6.621  0.8876 -1.1610 -1.2131
  375TIP3   OH227235   1.500   0.979   0.023  0.1054  0.1245 -0.0999
  375TIP3    H127236   1.471   1.070   0.014  0.8284  0.3632 -0.0987
  375TIP3    H227237   1.436   0.928  -0.026  0.0267  0.6995 -0.6088
  376TIP3   OH227238   5.710   5.979   6.191 -0.0633  0.1947  0.3071
  376TIP3    H127239   5.771   5.909   6.168  2.0690  2.4151 -1.4328
  376TIP3    H227240   5.650   5.984   6.115  0.7581  1.1806 -0.3005
  377TIP3   OH227241   6.062   5.260   6.909  0.2203  0.0385 -0.1892
  377TIP3    H127242   6.109   5.284   6.830  0.8052 -1.2959 -0.2698
  377TIP3    H227243   6.131   5.244   6.974 -0.0608 -2.1058 -0.3530
  378TIP3   OH227244   3.189   0.699   6.960 -0.4254 -0.0348 -0.1855
  378TIP3    H127245   3.169   0.707   7.054 -0.6664  2.3944 -0.3672
  378TIP3    H227246   3.266   0.642   6.956 -1.5579 -1.7799  1.3025
  379TIP3   OH227247   6.838   0.306   7.535 -0.3190 -0.3641  0.4050
  379TIP3    H127248   6.789   0.358   7.599  0.2225  0.4687  0.1651
  379TIP3    H227249   6.913   0.361   7.512  0.8635 -1.6966  0.9234
  380TIP3   OH227250   6.473   4.467   1.300  0.3178 -0.1249  0.3006
  380TIP3    H127251   6.399   4.492   1.245 -0.5199  0.9235  1.8272
  380TIP3    H227252   6.454   4.377   1.326 -0.5814  0.2102  0.8667
  381TIP3   OH227253   5.860   5.951   0.041  0.5779 -0.2283 -0.0396
  381TIP3    H127254   5.886   5.937   0.132 -0.7976 -1.4194  0.1960
  381TIP3    H227255   5.768   5.924   0.037  0.7604 -0.7364 -1.8923
  382TIP3   OH227256   5.338   6.980   0.800  0.2524 -0.2292 -0.0076
  382TIP3    H127257   5.275   7.021   0.741 -0.5333  0.0346  0.9735
  382TIP3    H227258   5.315   6.887   0.799 -1.8390  0.1368  2.1725
  383TIP3   OH227259   5.341   4.973   0.404  0.4479  0.2242  0.1899
  383TIP3    H127260   5.388   4.910   0.350  1.6034  1.4773 -0.3359
  383TIP3    H227261   5.279   5.014   0.344 -0.6327 -0.7190  0.6430
  384TIP3   OH227262   0.156   7.527   7.725 -0.8346 -0.1581 -0.1543
  384TIP3    H127263   0.205   7.445   7.731  0.7565  0.6313 -1.4952
  384TIP3    H227264   0.199   7.576   7.655 -1.5874  1.9233  0.7427
  385TIP3   OH227265   1.321   1.755   6.830  0.2623  0.2624  0.2018
  385TIP3    H127266   1.322   1.804   6.913  0.5692  1.5269 -0.5309
  385TIP3    H227267   1.258   1.684   6.845 -1.2214  1.6549  0.8534
  386TIP3   OH227268   2.349   7.966   6.091  0.1372  0.1789 -0.6298
  386TIP3    H127269   2.294   7.984   6.014  0.2455 -1.4532 -1.1161
  386TIP3    H227270   2.418   7.908   6.058  1.5172  1.2707  0.2168
  387TIP3   OH227271   4.382   2.818   0.730 -0.0545  0.1549 -0.0494
  387TIP3    H127272   4.353   2.909   0.744  1.6058  0.7640 -0.3666
  387TIP3    H227273   4.395   2.811   0.635  0.3565 -0.2474  0.0343
  388TIP3   OH227274   3.215   0.639   1.621  0.4449  0.1308  0.0249
  388TIP3    H127275   3.121   0.657   1.629  0.3839 -0.6987  1.7605
  388TIP3    H227276   3.239   0.602   1.706  1.8885 -1.7797 -1.1386
  389TIP3   OH227277   2.177   5.569   1.083 -0.4449  0.4526 -0.6533
  389TIP3    H127278   2.108   5.520   1.127 -1.4784  2.5152  0.1472
  389TIP3    H227279   2.240   5.590   1.152  1.6449 -2.3154 -1.5613
  390TIP3   OH227280   3.725   6.080   7.930 -0.1275 -0.5304 -0.2647
  390TIP3    H127281   3.750   6.070   7.838 -0.7057  0.4534 -0.5430
  390TIP3    H227282   3.661   6.151   7.930  1.0071  0.5692  1.0710
  391TIP3   OH227283   1.212   4.216   0.246 -0.0448  0.0307  0.7560
  391TIP3    H127284   1.294   4.236   0.202  0.6815 -0.7795  1.6760
  391TIP3    H227285   1.232   4.139   0.300 -1.3119  0.0298  1.2667
  392TIP3   OH227286   1.326   7.927   7.945  0.0805  0.4438 -0.3269
  392TIP3    H127287   1.347   8.008   7.897 -0.4159  0.2309 -0.9154
  392TIP3    H227288   1.339   7.857   7.881 -4.8030  0.4108 -1.7045
  393TIP3   OH227289   7.911   2.683   7.265 -0.0356 -0.4174  0.3484
  393TIP3    H127290   7.879   2.641   7.345  2.5046  0.0548  1.7064
  393TIP3    H227291   7.999   2.648   7.252  0.9071  2.0120 -0.3249
  394TIP3   OH227292   4.905   5.069   1.973 -0.1983  0.0631 -0.3848
  394TIP3    H127293   4.833   5.037   1.919 -0.5886  0.9080 -0.3811
  394TIP3    H227294   4.924   4.996   2.033  1.1205 -1.4201 -2.4361
  395TIP3   OH227295   5.995   2.932   0.950  0.8150 -0.1962 -0.2257
  395TIP3    H127296   6.088   2.926   0.972  1.0586  0.0456 -1.1787
  395TIP3    H227297   5.974   3.025   0.961  0.5770 -0.3185  0.3951
  396TIP3   OH227298   0.748   1.300   7.859  0.9606  0.6416 -0.0617
  396TIP3    H127299   0.762   1.367   7.927  0.1927  1.3348 -0.5746
  396TIP3    H227300   0.823   1.309   7.800  0.3223  1.7893 -0.7202
  397TIP3   OH227301   4.544   1.176   0.557 -0.0613  0.0860 -0.6015
  397TIP3    H127302   4.491   1.148   0.481  0.5946  0.9818 -1.4095
  397TIP3    H227303   4.577   1.262   0.532  1.4413 -0.2748  0.0677
  398TIP3   OH227304   1.323   2.542   7.306 -0.3786 -0.3395  0.5747
  398TIP3    H127305   1.266   2.538   7.383 -0.6901  0.1666  0.3791
  398TIP3    H227306   1.334   2.451   7.279 -1.4735 -0.4235  0.3461
  399TIP3   OH227307   2.330   3.434   0.951  0.4001 -0.3374  0.0808
  399TIP3    H127308   2.303   3.350   0.988 -4.1060  1.1947  0.9125
  399TIP3    H227309   2.326   3.420   0.856 -1.4246 -0.8759  0.1905
  400TIP3   OH227310   6.257   6.483   0.826 -0.2377  0.4145 -0.1415
  400TIP3    H127311   6.291   6.404   0.868 -1.1481 -0.0590 -0.2837
  400TIP3    H227312   6.202   6.451   0.755 -1.8866  1.1197  0.7689
  401TIP3   OH227313   5.596   0.068   7.517  0.0226  0.0510  0.4945
  401TIP3    H127314   5.597   0.093   7.425  0.3621  2.4564  1.0690
  401TIP3    H227315   5.504   0.073   7.543 -0.2479 -1.9207  0.0104
  402TIP3   OH227316   6.110   5.653   7.480 -0.2332 -0.8580  0.1360
  402TIP3    H127317   6.199   5.653   7.516 -0.9251 -0.0251  1.9925
  402TIP3    H227318   6.066   5.582   7.526 -1.3103  0.6133  1.4591
  403TIP3   OH227319   1.688   2.824   6.290  0.1544  0.3958  0.3082
  403TIP3    H127320   1.635   2.871   6.354 -0.1569 -0.1763  0.4731
  403TIP3    H227321   1.778   2.854   6.307  0.1043  0.0617  1.1758
  404TIP3   OH227322   6.736   3.377   6.060 -0.0795 -0.1151 -0.4257
  404TIP3    H127323   6.831   3.377   6.042  0.0697 -0.9210  0.3059
  404TIP3    H227324   6.730   3.372   6.155 -0.8321 -1.9881 -0.5237
  405TIP3   OH227325   1.665   0.893   6.277 -0.1205  0.1736 -0.1398
  405TIP3    H127326   1.577   0.875   6.310 -0.4419 -0.3224 -1.2142
  405TIP3    H227327   1.652   0.910   6.183  0.6526  2.3215  0.0849
  406TIP3   OH227328   3.080   7.433   6.896 -0.1126  0.3405  0.2737
  406TIP3    H127329   3.120   7.348   6.917  1.3584  1.3072  1.6499
  406TIP3    H227330   3.086   7.483   6.977 -0.1741  2.0512 -0.7289
  407TIP3   OH227331   4.318   3.083   1.212 -0.0767  0.2752 -0.1951
  407TIP3    H127332   4.351   3.046   1.293 -0.5025  0.3629  0.0189
  407TIP3    H227333   4.331   3.178   1.221 -0.5567  0.3287 -0.0288
  408TIP3   OH227334   6.164   0.839   5.397  0.2131  0.3473 -0.0556
  408TIP3    H127335   6.106   0.896   5.447 -0.2234 -0.0079 -0.1448
  408TIP3    H227336   6.221   0.899   5.349  0.6609  0.6902  0.8894
  409TIP3   OH227337   5.395   1.010   7.627 -0.5344 -0.1460  0.4529
  409TIP3    H127338   5.465   1.071   7.651 -1.5724  0.6201  1.7078
  409TIP3    H227339   5.345   1.056   7.559  1.5763 -1.7396 -2.4161
  410TIP3   OH227340   2.658   3.054   1.557 -0.5025 -0.2091  0.3267
  410TIP3    H127341   2.643   3.014   1.643  1.6115 -0.5506  0.5757
  410TIP3    H227342   2.663   2.980   1.497 -1.3665  0.0009 -0.0282
  411TIP3   OH227343   0.675   0.357   5.233  0.4910 -0.3928 -0.6930
  411TIP3    H127344   0.736   0.333   5.163 -3.0027 -1.4335 -3.7249
  411TIP3    H227345   0.651   0.448   5.214 -0.5496 -0.7106 -0.9839
  412TIP3   OH227346   2.268   4.041   7.072  0.1573 -0.3662 -0.7633
  412TIP3    H127347   2.269   4.069   6.980  1.6602  1.4447 -0.2565
  412TIP3    H227348   2.295   4.119   7.121  0.5598 -1.6378  1.1325
  413TIP3   OH227349   3.510   5.292   6.994 -0.5793 -0.3083 -0.2270
  413TIP3    H127350   3.493   5.301   7.088  0.0906  1.8220 -0.2371
  413TIP3    H227351   3.425   5.270   6.955 -1.3422  0.9578  0.6611
  414TIP3   OH227352   3.662   2.849   0.248  0.6647 -0.2044 -0.1349
  414TIP3    H127353   3.655   2.807   0.162 -1.5688  0.2087 -0.1984
  414TIP3    H227354   3.756   2.852   0.264  1.2260  0.3466 -2.8827
  415TIP3   OH227355   0.969   3.914   0.150  0.1139  0.3103 -0.7494
  415TIP3    H127356   1.055   3.873   0.141  0.1606  0.5771 -1.7095
  415TIP3    H227357   0.951   3.950   0.063 -1.8049 -1.3933 -1.1364
  416TIP3   OH227358   6.909   0.771   7.861  0.1384 -0.0544  0.1750
  416TIP3    H127359   6.943   0.698   7.810 -0.3082 -0.5862  0.6269
  416TIP3    H227360   6.955   0.766   7.944  0.2825  0.3318  0.1226
  417TIP3   OH227361   7.431   7.603   7.004  0.0281  0.1535 -0.3434
  417TIP3    H127362   7.358   7.579   6.947 -0.5946  1.4061 -0.1038
  417TIP3    H227363   7.504   7.550   6.973 -1.4253 -2.6153  0.6659
  418TIP3   OH227364   4.967   3.840   0.830 -0.0234 -0.3124  0.3655
  418TIP3    H127365   4.960   3.813   0.739 -1.5219  0.2076  0.2896
  418TIP3    H227366   4.885   3.811   0.870 -1.0883  2.7233  0.6225
  419TIP3   OH227367   2.177   5.552   7.186 -0.3487  0.0298  0.2431
  419TIP3    H127368   2.096   5.591   7.216 -0.7283  1.6140 -2.4893
  419TIP3    H227369   2.237   5.626   7.174  1.7273 -1.1198  2.5414
  420TIP3   OH227370   3.614   1.893   0.644 -0.1661 -0.0497  0.1764
  420TIP3    H127371   3.650   1.964   0.592 -0.1609 -0.4340 -0.3512
  420TIP3    H227372   3.608   1.819   0.584  1.7000 -1.1047  1.1958
  421TIP3   OH227373   2.421   3.165   0.257 -0.3244  0.0332  0.0323
  421TIP3    H127374   2.327   3.184   0.255  0.1121  2.5310 -0.0398
  421TIP3    H227375   2.449   3.170   0.166 -0.1026 -0.7472  0.0477
  422TIP3   OH227376   6.945   6.169   0.440  0.0567 -0.2155  0.1062
  422TIP3    H127377   6.866   6.126   0.473  0.2266 -1.4884 -1.0193
  422TIP3    H227378   6.999   6.096   0.407  0.4959  0.8257 -1.6128
  423TIP3   OH227379   0.386   2.068   7.672 -0.1179  0.6101 -0.1876
  423TIP3    H127380   0.313   2.053   7.731 -1.6699 -2.6629 -2.6538
  423TIP3    H227381   0.348   2.114   7.597  1.5825  3.6611  0.6346
  424TIP3   OH227382   3.496   5.439   1.592  0.2063  0.3601 -0.3536
  424TIP3    H127383   3.476   5.362   1.539  1.2302 -0.5444  0.5049
  424TIP3    H227384   3.587   5.426   1.619 -0.8688 -0.5008  3.5738
  425TIP3   OH227385   0.040   1.158   6.300 -0.1072  0.7017  0.1784
  425TIP3    H127386   0.038   1.199   6.387 -1.0275 -0.6669  0.8427
  425TIP3    H227387   0.040   1.064   6.318  0.6233  0.3938 -1.3143
  426TIP3   OH227388   4.678   5.500   0.641 -0.3047  0.1195  0.6020
  426TIP3    H127389   4.711   5.412   0.659 -1.4291 -0.4323  0.0355
  426TIP3    H227390   4.610   5.488   0.575 -0.4800  1.4190  0.5050
  427TIP3   OH227391   1.436   0.569   5.896 -0.3481 -0.6600 -0.7924
  427TIP3    H127392   1.461   0.590   5.807  2.6790 -3.2855 -0.7361
  427TIP3    H227393   1.412   0.476   5.893 -2.2069 -0.3033  0.8164
  428TIP3   OH227394   4.912   2.959   0.440 -1.1700  0.5240  0.1924
  428TIP3    H127395   4.884   2.884   0.492 -2.3405  0.0823 -0.9990
  428TIP3    H227396   4.873   2.944   0.353  0.3281  1.4413 -0.6937
  429TIP3   OH227397   4.408   7.584   0.157  0.0774  0.0310  0.0892
  429TIP3    H127398   4.459   7.587   0.238 -0.2071 -0.9166  0.3149
  429TIP3    H227399   4.364   7.499   0.159 -1.0406  0.5822 -0.3923
  430TIP3   OH227400   0.733   1.506   6.725 -0.2169  0.2174  0.1834
  430TIP3    H127401   0.650   1.531   6.684  0.4349  2.0580 -0.0815
  430TIP3    H227402   0.737   1.558   6.805  0.8141  0.3630  0.0484
  431TIP3   OH227403   4.121   5.669   7.450  0.7612  0.4069  0.7287
  431TIP3    H127404   4.184   5.614   7.496  1.1836 -0.0010 -0.3242
  431TIP3    H227405   4.091   5.615   7.377 -0.6148  0.6952  1.0538
  432TIP3   OH227406   0.773   4.569   1.011  0.2560  0.6198  0.1083
  432TIP3    H127407   0.732   4.484   1.027  0.5788  0.3377 -0.5394
  432TIP3    H227408   0.810   4.594   1.096  2.3027 -1.0336 -0.2143
  433TIP3   OH227409   0.684   6.753   6.394 -0.0174 -0.5047  0.2738
  433TIP3    H127410   0.645   6.713   6.317  0.3186 -0.6474  0.1746
  433TIP3    H227411   0.775   6.771   6.368 -0.2369  0.5606  0.2312
  434TIP3   OH227412   2.314   0.197   1.418 -0.7419  0.0405 -0.6464
  434TIP3    H127413   2.308   0.291   1.404  1.1090  0.4211  0.6956
  434TIP3    H227414   2.363   0.188   1.500 -0.3487 -2.0836 -1.0536
  435TIP3   OH227415   5.006   7.280   7.239 -0.2507  0.3045  0.8561
  435TIP3    H127416   4.988   7.372   7.222 -0.8824  0.5901  2.7772
  435TIP3    H227417   5.044   7.279   7.327  2.1093 -1.0577 -0.0839
  436TIP3   OH227418   0.443   4.241   0.181  0.3986  0.2257 -0.1134
  436TIP3    H127419   0.421   4.165   0.126  1.9174 -0.2902 -0.0566
  436TIP3    H227420   0.483   4.202   0.259 -1.5134  0.9518  1.3273
  437TIP3   OH227421   7.514   6.953   0.024  0.2211 -0.2437 -0.2570
  437TIP3    H127422   7.527   7.028   0.082  0.1317 -0.7889  0.4872
  437TIP3    H227423   7.595   6.949  -0.027 -0.0794  0.8048 -0.8430
  438TIP3   OH227424   5.564   7.735   1.655 -0.1608  0.2810 -0.5421
  438TIP3    H127425   5.500   7.670   1.686  0.7182  0.0381  0.8783
  438TIP3    H227426   5.513   7.796   1.602 -1.7778  0.6120  1.2711
  439TIP3   OH227427   7.889   7.919   0.655 -0.4647  0.0161  0.2716
  439TIP3    H127428   7.893   7.904   0.750  1.1722  0.0330  0.2463
  439TIP3    H227429   7.979   7.943   0.631 -0.5860 -1.0814 -1.4623
  440TIP3   OH227430   3.529   6.249   0.649  0.6215 -0.1236  0.2315
  440TIP3    H127431   3.509   6.305   0.724 -3.0778 -1.4253  0.3865
  440TIP3    H227432   3.520   6.159   0.683  0.9108 -0.7690 -1.3217
  441TIP3   OH227433   6.007   1.813   0.461  0.3422  0.4103  0.3398
  441TIP3    H127434   5.978   1.875   0.528  1.5697  2.2063 -0.6811
  441TIP3    H227435   5.999   1.727   0.502 -2.2730  1.1266  1.5289
  442TIP3   OH227436   0.850   7.338   6.973 -0.1738  0.3753 -0.3401
  442TIP3    H127437   0.780   7.333   7.039  1.1995  0.8894  1.2395
  442TIP3    H227438   0.901   7.415   6.999  2.6659 -1.5753  0.3394
  443TIP3   OH227439   7.795   0.341   6.696  0.1229 -0.6668 -0.0407
  443TIP3    H127440   7.878   0.383   6.677  0.7094 -1.0791  1.4573
  443TIP3    H227441   7.816   0.274   6.762 -1.4972 -0.2488  0.9630
  444TIP3   OH227442   1.396   0.968   6.870  0.4682  0.2099  0.0202
  444TIP3    H127443   1.409   1.059   6.897  0.0683 -0.1307  1.4484
  444TIP3    H227444   1.344   0.974   6.790 -0.2216  1.2201  0.5243
  445TIP3   OH227445   0.509   2.451   6.319  0.5202 -0.0654  0.1249
  445TIP3    H127446   0.417   2.445   6.294 -0.0565  0.7508  1.9010
  445TIP3    H227447   0.534   2.541   6.296  1.2579 -0.6132 -1.4088
  446TIP3   OH227448   5.668   6.056   2.622  0.1499  0.9092 -0.7497
  446TIP3    H127449   5.590   6.112   2.621 -0.7423 -0.2817 -2.5637
  446TIP3    H227450   5.700   6.057   2.532  0.1622 -1.3832 -0.8365
  447TIP3   OH227451   7.433   7.876   6.913 -0.7873 -0.5968 -0.6359
  447TIP3    H127452   7.439   7.949   6.975  2.4694 -1.0343 -0.2945
  447TIP3    H227453   7.374   7.814   6.956  3.0020 -1.9218  3.3917
  448TIP3   OH227454   5.381   1.122   7.291  0.2226  0.4961  0.3016
  448TIP3    H127455   5.384   1.209   7.253  1.8972  0.6313  0.6775
  448TIP3    H227456   5.416   1.065   7.223 -1.5280 -0.0222 -0.2130
  449TIP3   OH227457   2.946   0.399   1.211 -0.1441 -0.4923 -0.7508
  449TIP3    H127458   2.910   0.311   1.200 -1.3765  0.0470 -1.1553
  449TIP3    H227459   3.033   0.394   1.169  0.1831 -1.7349  0.0192
  450TIP3   OH227460   7.151   5.060   7.797 -0.5231 -0.4076 -0.0188
  450TIP3    H127461   7.174   5.064   7.889 -1.7614  2.6375  0.2724
  450TIP3    H227462   7.057   5.080   7.795 -0.0873  1.8223 -2.0405
  451TIP3   OH227463   4.601   5.685   7.737  0.4194 -0.6410 -0.7837
  451TIP3    H127464   4.559   5.627   7.674 -2.6528 -0.0537  0.5270
  451TIP3    H227465   4.535   5.753   7.754  2.7164  1.5413  0.0002
  452TIP3   OH227466   6.327   1.429   1.781  0.5295 -0.2635  0.5524
  452TIP3    H127467   6.289   1.345   1.808 -1.1067  0.4045  0.4457
  452TIP3    H227468   6.366   1.465   1.861 -0.3773 -0.3129  1.0350
  453TIP3   OH227469   6.297   4.253   0.367 -0.6681 -1.1263 -0.4098
  453TIP3    H127470   6.358   4.246   0.440  0.8368  0.3023 -1.4473
  453TIP3    H227471   6.342   4.210   0.294 -0.0658  1.3853 -1.6250
  454TIP3   OH227472   1.415   4.550   7.764 -0.3254 -0.7608 -0.1902
  454TIP3    H127473   1.430   4.456   7.764 -0.5069 -0.8075  1.2345
  454TIP3    H227474   1.503   4.588   7.767 -0.2804 -0.9198  0.7148
  455TIP3   OH227475   8.038   7.844   6.636 -0.0106  0.4442 -0.1372
  455TIP3    H127476   8.034   7.893   6.718 -2.2301 -0.6452  0.5026
  455TIP3    H227477   7.953   7.799   6.631  0.1933  0.1838 -2.8606
  456TIP3   OH227478   6.460   5.082   1.017 -0.4008 -0.2031  0.7085
  456TIP3    H127479   6.552   5.075   1.041 -0.2843  2.7853  1.4662
  456TIP3    H227480   6.451   5.027   0.939  2.7122  1.5215 -1.0414
  457TIP3   OH227481   0.208   0.895   0.345 -0.7821  0.4849 -0.0418
  457TIP3    H127482   0.253   0.862   0.422 -1.4094 -2.1218 -0.6703
  457TIP3    H227483   0.121   0.857   0.350 -0.6521 -0.2954 -2.2851
  458TIP3   OH227484   4.918   8.000   0.707  0.3790 -0.2024 -0.0464
  458TIP3    H127485   4.832   8.043   0.709  0.8181  0.6845  1.1961
  458TIP3    H227486   4.975   8.059   0.756  1.2754 -1.6423  0.7118
  459TIP3   OH227487   7.353   3.870   6.185  0.4065  0.4781 -0.4586
  459TIP3    H127488   7.428   3.923   6.211  0.2302  1.0892 -1.1657
  459TIP3    H227489   7.300   3.928   6.130 -0.5731  0.0488  0.0097
  460TIP3   OH227490   4.783   2.875   1.562 -0.2317  0.1242 -0.1186
  460TIP3    H127491   4.823   2.791   1.583  2.3451  0.8307 -1.7227
  460TIP3    H227492   4.786   2.880   1.467 -0.3114  2.0131 -0.0647
  461TIP3   OH227493   0.683   4.652   7.213  0.1408 -0.3709  0.2564
  461TIP3    H127494   0.675   4.716   7.142 -1.4504  0.7364  1.3756
  461TIP3    H227495   0.608   4.669   7.270  0.6741 -2.0634  1.5594
  462TIP3   OH227496   3.253   4.450   7.576  0.4875  0.0149 -0.0581
  462TIP3    H127497   3.206   4.406   7.505  0.1170  0.0100  0.1857
  462TIP3    H227498   3.292   4.379   7.627  0.5615  0.0062 -0.1280
  463TIP3   OH227499   4.144   4.562   6.287  0.1086  0.1135 -0.4024
  463TIP3    H127500   4.057   4.587   6.254 -0.5461  0.1062  1.2480
  463TIP3    H227501   4.193   4.644   6.290 -0.4533  0.4230  0.4186
  464TIP3   OH227502   5.439   1.926   0.462  0.4465 -0.3455 -0.0655
  464TIP3    H127503   5.364   1.872   0.485  0.0174  0.1415 -0.3262
  464TIP3    H227504   5.440   1.996   0.527  0.9579 -0.6134  0.2257
  465TIP3   OH227505   1.648   7.202   0.802 -0.0897 -0.2919 -0.1623
  465TIP3    H127506   1.603   7.127   0.763 -0.1027 -0.0524 -0.6134
  465TIP3    H227507   1.597   7.222   0.881  1.2717 -2.2435  1.2972
  466TIP3   OH227508   7.896   3.625   1.424  0.0616  0.2657  0.1953
  466TIP3    H127509   7.837   3.589   1.490 -0.1199 -1.6520 -0.9444
  466TIP3    H227510   7.852   3.608   1.341  1.8649 -0.5953 -0.6345
  467TIP3   OH227511   3.325   2.421   6.188  0.2659  0.6782 -0.1555
  467TIP3    H127512   3.294   2.378   6.109  0.7456  0.7163 -0.3706
  467TIP3    H227513   3.419   2.403   6.189  0.4379  1.5355 -0.1339
  468TIP3   OH227514   1.199   3.959   0.452  0.3518 -0.1873 -0.2309
  468TIP3    H127515   1.213   3.875   0.406  0.2308  0.1260 -0.8519
  468TIP3    H227516   1.279   4.008   0.437  0.1110  0.1160 -0.5473
  469TIP3   OH227517   4.447   5.644   0.966  0.6398  0.4720  0.4291
  469TIP3    H127518   4.441   5.605   1.053  2.0148 -0.9375 -0.0698
  469TIP3    H227519   4.356   5.650   0.936  0.3115 -2.0176  0.7149
  470TIP3   OH227520   0.783   6.383   6.478  0.5917 -0.0310 -0.5405
  470TIP3    H127521   0.735   6.367   6.559 -0.7975 -0.0604 -1.3325
  470TIP3    H227522   0.718   6.424   6.420  1.6489  0.3055 -1.5186
  471TIP3   OH227523   6.580   4.495   0.254 -0.3344  0.5820  0.2961
  471TIP3    H127524   6.492   4.493   0.218 -1.2461 -0.0937  2.4259
  471TIP3    H227525   6.623   4.417   0.218 -1.1754 -0.0107  0.5579
  472TIP3   OH227526   4.853   4.574   1.600  0.0350 -0.1107  0.1324
  472TIP3    H127527   4.881   4.497   1.551 -0.9023  0.2915 -1.1088
  472TIP3    H227528   4.772   4.547   1.643 -0.6192  0.3063 -0.7807
  473TIP3   OH227529   2.564   1.940   6.259 -0.2187  0.6738 -0.9267
  473TIP3    H127530   2.588   2.025   6.221  0.3795  0.3664 -1.2507
  473TIP3    H227531   2.622   1.930   6.334 -2.3704  1.9509  1.0612
  474TIP3   OH227532   4.392   6.102   1.527 -0.1940 -0.1959 -0.0489
  474TIP3    H127533   4.351   6.182   1.493  0.0828 -0.3374 -0.7289
  474TIP3    H227534   4.369   6.101   1.620 -0.7281  0.3479 -0.1687
  475TIP3   OH227535   7.635   6.165   1.315 -0.4266 -0.4608 -0.1256
  475TIP3    H127536   7.563   6.210   1.360  0.3991 -0.5894  1.3981
  475TIP3    H227537   7.642   6.081   1.360 -0.2284 -1.0327 -1.2034
  476TIP3   OH227538   5.492   2.691   0.801 -0.5205 -0.3048  0.3622
  476TIP3    H127539   5.567   2.663   0.749 -0.7116  0.3292 -0.2708
  476TIP3    H227540   5.446   2.754   0.745 -2.7748 -2.3055 -0.2089
  477TIP3   OH227541   6.302   1.712   7.003  0.1475 -0.1052 -0.3631
  477TIP3    H127542   6.294   1.629   7.049 -2.0480  0.2017 -0.0438
  477TIP3    H227543   6.293   1.778   7.072 -2.6041  0.3526 -1.0257
  478TIP3   OH227544   4.878   6.649   6.890 -0.6148 -0.1007  0.3952
  478TIP3    H127545   4.855   6.571   6.942  0.0769 -2.3309 -2.3708
  478TIP3    H227546   4.969   6.666   6.911 -1.1025  0.7898  1.9209
  479TIP3   OH227547   3.023   2.561   6.232 -0.0755  0.3916 -0.3960
  479TIP3    H127548   3.112   2.583   6.203 -0.1295  0.3782 -0.5769
  479TIP3    H227549   3.015   2.603   6.317  0.3489 -0.1939 -0.0648
  480TIP3   OH227550   7.812   5.089   2.022  0.0652 -0.0839  0.1687
  480TIP3    H127551   7.907   5.076   2.031 -0.1943 -2.0926  0.5362
  480TIP3    H227552   7.802   5.134   1.939  1.2847 -1.3010 -0.6902
  481TIP3   OH227553   3.496   3.134   6.770 -0.0735  0.2091 -0.0793
  481TIP3    H127554   3.414   3.128   6.722  0.5982  0.2286 -1.2832
  481TIP3    H227555   3.557   3.175   6.708  0.7755  0.4463  0.8760
  482TIP3   OH227556   3.434   4.859   7.710 -0.1560 -0.5648 -0.1113
  482TIP3    H127557   3.390   4.790   7.659 -1.2290  0.9272 -1.2946
  482TIP3    H227558   3.480   4.811   7.779 -1.0678 -2.4519 -0.7200
  483TIP3   OH227559   2.848   6.668   1.717 -0.5143  0.0874  0.2352
  483TIP3    H127560   2.905   6.592   1.735 -0.3297  0.2913  0.5183
  483TIP3    H227561   2.872   6.732   1.784 -1.1813  0.1240  0.4422
  484TIP3   OH227562   8.097   2.005   1.797 -0.0457 -0.2112  0.1201
  484TIP3    H127563   8.031   2.030   1.863 -0.6871 -1.0793 -0.1719
  484TIP3    H227564   8.148   2.084   1.783 -2.2942  1.1224 -1.1297
  485TIP3   OH227565   7.354   3.444   1.957 -0.4420  0.4645  0.9176
  485TIP3    H127566   7.395   3.504   2.020 -0.8566 -2.3052  4.0418
  485TIP3    H227567   7.372   3.357   1.991  0.6470 -1.4244 -3.7255
  486TIP3   OH227568   7.343   7.082   2.285  0.3100 -0.0765  0.3893
  486TIP3    H127569   7.393   7.157   2.253 -0.1414  0.3095  0.5793
  486TIP3    H227570   7.374   7.008   2.232  0.8020  0.2290  0.2442
  487TIP3   OH227571   6.030   2.426   1.620 -0.3323  0.0704 -0.3749
  487TIP3    H127572   6.037   2.333   1.638 -0.5429 -0.2883 -2.0141
  487TIP3    H227573   5.954   2.455   1.671 -0.3735 -0.6726 -0.0044
  488TIP3   OH227574   7.549   4.338   6.885 -0.2858  0.1781 -0.6699
  488TIP3    H127575   7.538   4.250   6.921  1.6401 -0.4296 -1.4515
  488TIP3    H227576   7.644   4.350   6.880 -0.4846  2.5601 -0.0182
  489TIP3   OH227577   2.104   1.330   6.991  0.2582 -0.0018  0.0123
  489TIP3    H127578   2.066   1.415   6.969 -0.8480 -0.3565  0.4374
  489TIP3    H227579   2.146   1.343   7.076  3.7790  1.1464 -1.7091
  490TIP3   OH227580   1.979   4.847   7.851  0.4133  0.0882  0.2168
  490TIP3    H127581   1.921   4.876   7.921  0.1517 -0.4885  0.2409
  490TIP3    H227582   2.061   4.894   7.867  0.4571 -0.2733  1.0918
  491TIP3   OH227583   4.385   2.097   7.476 -0.5159  0.2486  0.5895
  491TIP3    H127584   4.433   2.015   7.475  0.2512  0.6594 -1.4077
  491TIP3    H227585   4.295   2.073   7.456 -0.9087 -0.3468  2.7620
  492TIP3   OH227586   0.137   3.023   6.160  0.1389  0.1582 -0.5285
  492TIP3    H127587   0.134   2.931   6.185  0.2497  0.4910  0.7641
  492TIP3    H227588   0.184   3.066   6.232 -0.1868  1.2759 -0.9660
  493TIP3   OH227589   7.224   0.976   1.760  0.5467  0.6673  0.5667
  493TIP3    H127590   7.161   0.907   1.742  1.9914 -0.8589  1.0779
  493TIP3    H227591   7.307   0.944   1.724  1.3054  2.0421  0.9810
  494TIP3   OH227592   6.238   8.036   1.739  0.1174  0.2235 -0.1884
  494TIP3    H127593   6.167   8.024   1.677 -1.1527 -0.3953  1.3246
  494TIP3    H227594   6.255   7.949   1.774 -0.8712  0.8535  2.0553
  495TIP3   OH227595   1.503   3.677   5.890 -0.0637 -0.1547  0.0837
  495TIP3    H127596   1.515   3.591   5.931 -0.2592  0.5605  1.7183
  495TIP3    H227597   1.413   3.677   5.858 -0.5711 -0.0222  1.4612
  496TIP3   OH227598   1.868   0.439   6.634  0.0382 -0.1045 -0.5442
  496TIP3    H127599   1.828   0.446   6.721 -0.6142  0.0277 -0.8547
  496TIP3    H227600   1.877   0.529   6.604 -0.4886 -0.1803 -0.9504
  497TIP3   OH227601   7.727   2.647   6.363 -0.1945  0.1709  0.1990
  497TIP3    H127602   7.794   2.632   6.429 -0.5364 -0.5644  0.3935
  497TIP3    H227603   7.733   2.571   6.305 -1.8315 -0.6777  1.0765
  498TIP3   OH227604   0.637   5.656   2.152  0.5850  0.8489  0.9705
  498TIP3    H127605   0.621   5.602   2.074 -0.5733  0.4629  1.4593
  498TIP3    H227606   0.731   5.674   2.149  0.7143  0.1208 -0.0488
  499TIP3   OH227607   7.560   1.147   6.246  0.3732  0.0276 -0.2337
  499TIP3    H127608   7.472   1.112   6.235  0.2582  0.3534 -0.3818
  499TIP3    H227609   7.589   1.168   6.156  0.5111  0.1313 -0.1665
  500TIP3   OH227610   2.805   0.125   6.598 -0.7482  0.6877 -0.1541
  500TIP3    H127611   2.782   0.051   6.542  2.5188  0.1006 -0.9449
  500TIP3    H227612   2.771   0.202   6.551  0.2486  0.0452 -2.0441
  501TIP3   OH227613   6.814   5.005   0.483  0.3878  0.0896  0.6343
  501TIP3    H127614   6.909   5.012   0.492  0.2074 -0.1127  3.3428
  501TIP3    H227615   6.781   5.089   0.514 -0.4101 -1.0364  3.0623
  502TIP3   OH227616   0.224   6.530   1.596 -0.3208 -0.1824 -0.1912
  502TIP3    H127617   0.270   6.612   1.614 -2.8882  1.7017 -1.5162
  502TIP3    H227618   0.221   6.485   1.680  3.4359 -0.2719  0.0416
  503TIP3   OH227619   1.854   2.970   5.966 -0.8586 -0.1776  0.1444
  503TIP3    H127620   1.924   3.032   5.988 -0.1608 -0.0478 -2.2409
  503TIP3    H227621   1.873   2.893   6.021  1.7723 -0.5271 -1.1144
  504TIP3   OH227622   2.348   7.077   1.646 -0.2670  0.2617 -0.7375
  504TIP3    H127623   2.422   7.076   1.706 -1.0041  0.5675  0.1941
  504TIP3    H227624   2.359   6.998   1.593  0.0418 -0.3607  0.2373
  505TIP3   OH227625   3.890   4.535   1.033  0.3560 -0.3512  0.0322
  505TIP3    H127626   3.955   4.495   0.975  1.8304  2.6060 -0.4977
  505TIP3    H227627   3.929   4.617   1.061 -3.0281  1.4943 -0.0861
  506TIP3   OH227628   4.684   7.359   7.511  0.5962  0.5058 -0.1671
  506TIP3    H127629   4.713   7.335   7.598  2.4648 -2.3471 -1.4449
  506TIP3    H227630   4.740   7.433   7.486  0.2793  1.1137  0.8422
  507TIP3   OH227631   5.363   6.379   0.620  0.4281 -0.0051 -0.6777
  507TIP3    H127632   5.328   6.393   0.708 -1.1713 -0.7974 -1.1438
  507TIP3    H227633   5.382   6.467   0.587  1.1991  0.2869  0.4926
  508TIP3   OH227634   0.369   1.322   7.076  0.5218 -0.0008  0.0983
  508TIP3    H127635   0.393   1.242   7.122 -0.5106 -0.1283  0.4468
  508TIP3    H227636   0.413   1.392   7.123  1.0321 -0.3150  0.0895
  509TIP3   OH227637   5.535   4.832   1.628  0.5659 -0.1176  0.4183
  509TIP3    H127638   5.605   4.837   1.563 -0.0847 -0.2309 -0.3120
  509TIP3    H227639   5.464   4.786   1.583 -0.5664  1.3718  0.6047
  510TIP3   OH227640   3.377   7.492   0.671  0.2359  0.0578 -0.3394
  510TIP3    H127641   3.392   7.585   0.687  1.6462 -0.3615  1.0950
  510TIP3    H227642   3.349   7.487   0.580 -0.4603  1.9312 -0.2672
  511TIP3   OH227643   4.477   2.627   6.997 -0.0522 -0.3468 -0.2960
  511TIP3    H127644   4.466   2.663   7.085 -0.5190 -1.6321  0.1901
  511TIP3    H227645   4.571   2.625   6.983 -0.0108  1.8322 -0.6935
  512TIP3   OH227646   1.962   1.418   1.888 -0.0474 -0.2086  0.9557
  512TIP3    H127647   1.908   1.486   1.847  0.6849  0.2736  0.7837
  512TIP3    H227648   2.052   1.440   1.865  0.1206 -2.1583 -0.4873
  513TIP3   OH227649   1.146   6.235   1.513 -0.2765 -0.0954 -0.0284
  513TIP3    H127650   1.183   6.204   1.429  0.7416 -0.0803  0.3957
  513TIP3    H227651   1.052   6.235   1.499 -0.1937 -1.2920 -0.7811
  514TIP3   OH227652   0.972   5.427   7.731 -0.6755 -0.0275  0.4624
  514TIP3    H127653   0.918   5.352   7.706 -0.2596 -1.3428  3.1440
  514TIP3    H227654   1.059   5.390   7.745  0.1676  1.4649 -0.5896
  515TIP3   OH227655   0.049   4.475   7.074 -0.0951 -0.0431  0.1038
  515TIP3    H127656   0.029   4.465   7.167 -1.1122  0.3894 -0.0455
  515TIP3    H227657   0.142   4.495   7.071 -0.1748  0.5565  1.0832
  516TIP3   OH227658   6.924   7.984   0.724 -0.0775  0.0844  0.1023
  516TIP3    H127659   6.892   7.934   0.648  1.2308  0.6916 -0.9043
  516TIP3    H227660   6.982   7.923   0.770  0.2991  0.1760 -0.2448
  517TIP3   OH227661   1.169   6.116   0.870 -0.1023  0.2090 -0.3073
  517TIP3    H127662   1.262   6.130   0.889  0.3255 -1.7224 -0.8264
  517TIP3    H227663   1.162   6.127   0.776 -0.2899 -0.2418 -0.3440
  518TIP3   OH227664   6.265   5.740   1.661 -0.0603  0.6032 -0.0134
  518TIP3    H127665   6.238   5.731   1.752 -1.9989  0.8493 -0.5223
  518TIP3    H227666   6.326   5.814   1.661 -0.5197  0.9976  0.9952
  519TIP3   OH227667   7.756   0.987   1.542  0.4478  0.0329 -0.0704
  519TIP3    H127668   7.823   1.049   1.570 -0.0747  1.0745 -1.0377
  519TIP3    H227669   7.702   0.973   1.619  0.4958  0.9086  0.1323
  520TIP3   OH227670   6.143   0.700   1.828 -0.2779 -0.4099 -0.0882
  520TIP3    H127671   6.189   0.730   1.750 -1.5004 -1.9221 -1.4822
  520TIP3    H227672   6.193   0.622   1.856  0.8756  0.8156  1.4383
  521TIP3   OH227673   6.146   7.913   1.042  0.2442 -0.4608  0.6012
  521TIP3    H127674   6.149   7.822   1.012  2.0340 -0.0453 -0.6335
  521TIP3    H227675   6.145   7.965   0.961 -0.6517  0.6502  1.2894
  522TIP3   OH227676   5.583   3.722   6.631  0.0508  0.7482  0.5289
  522TIP3    H127677   5.565   3.660   6.701  2.1754  0.6791  1.0881
  522TIP3    H227678   5.555   3.807   6.665  1.9333  0.8724  1.9200
  523TIP3   OH227679   3.133   6.257   5.840 -0.1056 -0.0625 -0.2489
  523TIP3    H127680   3.049   6.298   5.816  0.4540  1.5480  0.4095
  523TIP3    H227681   3.198   6.306   5.789  0.7851  1.2753  2.0472
  524TIP3   OH227682   0.549   4.421   1.730  0.0391 -0.2547  0.0377
  524TIP3    H127683   0.603   4.492   1.696  1.0009 -0.8127  0.3818
  524TIP3    H227684   0.519   4.374   1.652 -1.6274  1.2287 -0.2743
  525TIP3   OH227685   7.623   3.695   0.646 -0.3289  0.1419 -0.3437
  525TIP3    H127686   7.614   3.716   0.553  1.4541  3.2473  0.0613
  525TIP3    H227687   7.711   3.659   0.655  0.3407  1.8797  0.3972
  526TIP3   OH227688   2.032   7.122   5.711 -0.3225  0.3645 -0.3806
  526TIP3    H127689   2.115   7.150   5.752 -2.1440  0.8690  3.4106
  526TIP3    H227690   2.020   7.182   5.638  1.5814  1.7976  0.3933
  527TIP3   OH227691   1.852   4.558   1.206  0.5097  0.8040 -0.1813
  527TIP3    H127692   1.821   4.578   1.118 -0.3241 -0.9825 -0.3293
  527TIP3    H227693   1.889   4.641   1.237  0.7757  1.4855 -2.1629
  528TIP3   OH227694   1.737   1.551   7.247  0.3369  0.2063 -0.0947
  528TIP3    H127695   1.665   1.493   7.271  2.1734 -2.3506 -0.3889
  528TIP3    H227696   1.711   1.584   7.161 -0.5053 -0.6702 -0.2084
  529TIP3   OH227697   5.612   0.373   6.877  0.5596 -0.2609  0.4520
  529TIP3    H127698   5.551   0.307   6.909 -0.9290  1.8028  2.1437
  529TIP3    H227699   5.583   0.393   6.788 -1.1679  0.5137  1.1478
  530TIP3   OH227700   3.118   6.956   7.721 -0.2660  0.3860  0.3963
  530TIP3    H127701   3.104   7.048   7.696 -0.0209  0.8326  1.8379
  530TIP3    H227702   3.075   6.948   7.806 -0.8290 -1.0190  0.0072
  531TIP3   OH227703   1.881   1.304   2.195  0.7464 -0.5410  0.5917
  531TIP3    H127704   1.901   1.352   2.114  2.0383 -2.5456 -0.3735
  531TIP3    H227705   1.820   1.360   2.242  0.2483  0.8933 -1.6035
  532TIP3   OH227706   1.638   1.973   0.633 -0.0104  0.5630 -0.6083
  532TIP3    H127707   1.612   1.884   0.611 -1.4012  0.9589 -0.7180
  532TIP3    H227708   1.622   1.981   0.727  1.4182  0.3082 -0.3171
  533TIP3   OH227709   6.068   5.176   1.928  0.0063  0.2590 -0.1130
  533TIP3    H127710   6.045   5.096   1.881 -0.0319  1.0043 -1.4187
  533TIP3    H227711   6.087   5.239   1.859  2.4399  0.7072  0.8591
  534TIP3   OH227712   3.243   2.684   7.448  0.0925 -0.2234  0.3333
  534TIP3    H127713   3.330   2.713   7.421  0.1441  0.0083  0.7312
  534TIP3    H227714   3.258   2.603   7.496  0.1284 -0.0318  0.6568
  535TIP3   OH227715   5.961   1.966   0.233 -0.4848 -0.4353  0.4853
  535TIP3    H127716   5.976   1.914   0.311 -1.9467  0.1342  1.1850
  535TIP3    H227717   6.048   1.978   0.195  0.0964 -1.8389  1.2769
  536TIP3   OH227718   1.563   7.644   0.858  0.1638  0.0160 -0.0755
  536TIP3    H127719   1.607   7.717   0.815  1.7827 -0.2980  0.9615
  536TIP3    H227720   1.540   7.585   0.787 -0.7303  1.2725 -0.8814
  537TIP3   OH227721   5.159   4.922   7.063  0.5501  0.0657 -0.3923
  537TIP3    H127722   5.221   4.890   7.128 -0.1024 -1.7648 -0.6104
  537TIP3    H227723   5.093   4.853   7.057 -0.3161  0.9658 -1.7713
  538TIP3   OH227724   7.332   0.538   0.299 -0.0074 -1.4124 -0.1619
  538TIP3    H127725   7.363   0.513   0.386 -1.3201 -1.2224  0.3894
  538TIP3    H227726   7.236   0.540   0.307 -0.0951  0.8803 -0.9586
  539TIP3   OH227727   3.782   3.090   0.619  0.5374  0.1465 -0.8153
  539TIP3    H127728   3.871   3.088   0.585  0.8198 -1.5224 -0.0563
  539TIP3    H227729   3.791   3.091   0.714 -0.2512  0.1508 -0.7276
  540TIP3   OH227730   3.905   6.785   6.618  0.5720  0.1254  0.4703
  540TIP3    H127731   3.927   6.755   6.530 -0.2692  2.0487 -0.4443
  540TIP3    H227732   3.879   6.705   6.664  1.6604 -1.0193 -0.7915
  541TIP3   OH227733   8.062   1.321   7.248 -0.0193 -0.0077 -0.1087
  541TIP3    H127734   7.994   1.380   7.281  0.4266  0.3221  0.2506
  541TIP3    H227735   8.014   1.249   7.208 -0.5781  0.4401 -0.2654
  542TIP3   OH227736   2.735   7.972   5.802 -0.0065  0.1015 -0.3410
  542TIP3    H127737   2.786   7.912   5.748 -0.2379  0.1196 -0.5841
  542TIP3    H227738   2.799   8.034   5.836  0.6845 -1.7359  1.9822
  543TIP3   OH227739   3.999   0.314   1.407  0.4712  0.4733  0.0444
  543TIP3    H127740   3.951   0.323   1.489  1.5992  2.4353  0.5326
  543TIP3    H227741   4.090   0.302   1.433  0.6373 -0.5904 -0.9171
  544TIP3   OH227742   6.380   1.789   6.732 -0.0656 -0.3343  0.0288
  544TIP3    H127743   6.372   1.875   6.773  0.1592 -0.8646  1.2428
  544TIP3    H227744   6.351   1.727   6.800  1.6093 -1.3453 -0.1096
  545TIP3   OH227745   4.010   2.122   6.339 -0.7414  0.3639 -0.4485
  545TIP3    H127746   4.080   2.186   6.328 -0.5046  0.1454 -0.2074
  545TIP3    H227747   3.929   2.174   6.336 -0.5436  0.6912 -0.1341
  546TIP3   OH227748   6.507   7.699   7.386 -0.1685 -0.5563 -0.0163
  546TIP3    H127749   6.512   7.794   7.401 -0.9873 -0.5102 -0.0246
  546TIP3    H227750   6.466   7.691   7.300  2.6562 -0.8617 -1.4603
  547TIP3   OH227751   6.433   3.904   0.413  0.4494  0.5915  0.3362
  547TIP3    H127752   6.373   3.899   0.339  0.3292 -0.6188  0.4955
  547TIP3    H227753   6.438   3.814   0.446  2.4495  0.6391  0.2509
  548TIP3   OH227754   6.170   2.769   5.620  0.4577 -0.1404 -0.3609
  548TIP3    H127755   6.247   2.720   5.647  1.2393  0.4907 -1.3644
  548TIP3    H227756   6.194   2.861   5.632  0.0010  0.0758 -1.0301
  549TIP3   OH227757   5.248   4.068   5.926 -0.1770 -0.1391 -0.0841
  549TIP3    H127758   5.241   4.008   6.001  0.0154  0.9862  0.8701
  549TIP3    H227759   5.232   4.013   5.849 -0.9496 -1.2096  0.8175
  550TIP3   OH227760   5.438   4.364   1.686 -0.2553  0.3001 -0.4799
  550TIP3    H127761   5.485   4.283   1.704 -1.1463 -0.3370 -0.9545
  550TIP3    H227762   5.473   4.427   1.749  0.2195 -0.5355  0.0974
  551TIP3   OH227763   0.065   0.010   1.387  0.2872 -0.4005  0.0554
  551TIP3    H127764   0.127   0.013   1.460  3.5302  3.6933 -2.3702
  551TIP3    H227765   0.110  -0.043   1.320 -0.3304 -0.1054 -0.6100
  552TIP3   OH227766   6.279   0.835   1.633  0.1291  0.0169  0.3547
  552TIP3    H127767   6.350   0.887   1.596  1.4338 -1.3174  0.8636
  552TIP3    H227768   6.199   0.882   1.610  1.2357  2.4281  1.1052
  553TIP3   OH227769   2.206   6.826   7.572 -0.2064  0.0141  0.2034
  553TIP3    H127770   2.161   6.884   7.634 -0.2062  1.0646 -0.7310
  553TIP3    H227771   2.151   6.829   7.493  0.1024 -0.8173 -0.0450
  554TIP3   OH227772   6.852   7.270   6.028  0.2422  0.0103 -0.0744
  554TIP3    H127773   6.776   7.219   6.055  0.7723 -0.5694  0.3450
  554TIP3    H227774   6.927   7.222   6.063  0.9134 -0.2605 -1.7661
  555TIP3   OH227775   5.031   1.060   7.809 -0.3518  0.1549 -0.4240
  555TIP3    H127776   5.060   0.995   7.745  0.8531  0.8014 -0.5633
  555TIP3    H227777   5.085   1.043   7.886 -0.2073  0.8112 -0.3722
  556TIP3   OH227778   1.830   7.177   6.062 -0.4272  0.4304 -0.2174
  556TIP3    H127779   1.837   7.100   6.006 -0.5665  0.4846 -0.3093
  556TIP3    H227780   1.917   7.218   6.057 -0.1575 -0.0623  0.3323
  557TIP3   OH227781   7.881   4.389   7.923 -0.5683  0.4974 -0.0666
  557TIP3    H127782   7.876   4.373   7.829  2.6889  1.9691 -0.6108
  557TIP3    H227783   7.951   4.453   7.933 -1.0767  0.6974  3.3540
  558TIP3   OH227784   7.027   3.096   6.815 -0.6473 -0.1495 -0.3789
  558TIP3    H127785   6.965   3.143   6.759  0.5892  0.5918 -1.1815
  558TIP3    H227786   7.100   3.075   6.756 -0.1536 -1.0193  0.5334
  559TIP3   OH227787   7.645   1.068   0.097  0.0011  0.3729 -0.1965
  559TIP3    H127788   7.563   1.035   0.059  0.6010  0.2718 -1.4792
  559TIP3    H227789   7.709   1.058   0.026  0.6786  2.3186  0.0828
  560TIP3   OH227790   5.997   0.269   1.804  0.2604  0.5526 -0.2528
  560TIP3    H127791   6.002   0.333   1.875 -0.1748 -0.3281  0.5949
  560TIP3    H227792   5.961   0.190   1.845  0.5365 -0.1586 -1.3298
  561TIP3   OH227793   5.838   6.634   0.401  0.4554  0.2193  0.1393
  561TIP3    H127794   5.780   6.672   0.336  1.0352 -0.8784 -1.0599
  561TIP3    H227795   5.925   6.638   0.361  0.9322  0.1346  1.1280
  562TIP3   OH227796   6.415   6.682   2.738  0.2543  0.8491  0.2453
  562TIP3    H127797   6.328   6.651   2.761  0.6883 -1.2912 -0.7841
  562TIP3    H227798   6.468   6.603   2.731  2.1163  2.0428  0.1235
  563TIP3   OH227799   3.999   2.458   0.353 -0.4382  0.0261  0.3390
  563TIP3    H127800   4.000   2.362   0.353  0.7701  0.0117  1.6336
  563TIP3    H227801   3.906   2.481   0.356 -0.7288 -1.1669  3.1388
  564TIP3   OH227802   6.131   0.288   0.672  0.2708  0.0302  0.1438
  564TIP3    H127803   6.144   0.368   0.723  3.3717 -1.8675  2.7173
  564TIP3    H227804   6.038   0.287   0.651 -0.0797  3.7272  0.9059
  565TIP3   OH227805   3.956   4.137   2.069 -0.1392 -0.2364 -0.0069
  565TIP3    H127806   3.880   4.170   2.021 -0.1032 -0.0159  0.0891
  565TIP3    H227807   3.947   4.173   2.157 -0.2731 -0.7430  0.1915
  566TIP3   OH227808   5.024   4.175   1.992 -0.2041  0.1282  0.6395
  566TIP3    H127809   4.963   4.142   2.058 -1.8672  1.3599 -0.1979
  566TIP3    H227810   5.104   4.194   2.041 -1.1625  0.3899  2.1861
  567TIP3   OH227811   7.796   5.410   7.827  0.5912 -0.2043  1.0748
  567TIP3    H127812   7.765   5.404   7.736  1.0025 -1.8061  1.0036
  567TIP3    H227813   7.800   5.504   7.845 -1.7836  0.1309  0.2403
  568TIP3   OH227814   4.942   6.445   7.667 -0.0518 -0.0877  0.4040
  568TIP3    H127815   4.952   6.364   7.717  0.0977 -0.2411  0.1286
  568TIP3    H227816   5.021   6.495   7.687 -0.2896  0.1270  0.8194
  569TIP3   OH227817   7.972   3.286   5.933  0.0449 -0.1785  0.2882
  569TIP3    H127818   7.971   3.238   5.849 -0.2853  0.3530 -0.0125
  569TIP3    H227819   7.881   3.288   5.961  0.1497 -0.3219  0.6488
  570TIP3   OH227820   6.802   4.979   2.240 -0.7126 -0.1001 -0.5442
  570TIP3    H127821   6.746   4.973   2.317 -2.4220 -1.9139 -1.8390
  570TIP3    H227822   6.778   5.063   2.200  0.9451  1.3639  1.3648
  571TIP3   OH227823   6.088   2.899   7.404  0.2871  0.3437 -0.1496
  571TIP3    H127824   6.166   2.852   7.434 -0.3086  1.0279  2.7772
  571TIP3    H227825   6.033   2.906   7.482 -1.3259  2.5663 -1.3765
  572TIP3   OH227826   5.322   7.810   6.090 -0.2975  0.0430  0.2125
  572TIP3    H127827   5.328   7.739   6.027  0.1439  0.3099 -0.0521
  572TIP3    H227828   5.413   7.832   6.111 -0.4153  0.8108 -0.0300
  573TIP3   OH227829   7.116   4.247   1.674 -0.4624  0.1361 -0.7898
  573TIP3    H127830   7.112   4.250   1.579  1.8656 -0.1977 -0.9634
  573TIP3    H227831   7.209   4.238   1.694 -0.9664 -0.8353  1.4937
  574TIP3   OH227832   6.234   2.710   0.854 -0.0759  1.0278  0.0725
  574TIP3    H127833   6.205   2.694   0.944 -1.0628 -0.2439 -0.4407
  574TIP3    H227834   6.168   2.667   0.799  1.4351  0.2415 -1.2229
  575TIP3   OH227835   1.772   3.940   1.871  0.0254  0.4347 -0.2774
  575TIP3    H127836   1.783   3.915   1.779 -2.2238  1.7772 -0.9755
  575TIP3    H227837   1.732   3.863   1.911  0.7649 -0.0583 -0.4595
  576TIP3   OH227838   7.773   2.217   0.303 -0.1852  0.3326 -0.4098
  576TIP3    H127839   7.822   2.219   0.385  0.5001  0.4714 -0.8176
  576TIP3    H227840   7.840   2.214   0.234 -0.6690 -3.3937 -0.9336
  577TIP3   OH227841   6.703   0.385   1.527  0.5204 -0.7888  0.3331
  577TIP3    H127842   6.668   0.470   1.555  1.9028 -0.1621  0.1957
  577TIP3    H227843   6.630   0.324   1.542 -1.4238  0.7687 -1.8826
  578TIP3   OH227844   5.451   0.168   1.848  0.7061 -0.2379  0.7446
  578TIP3    H127845   5.424   0.188   1.938  1.4794  0.6396  0.7922
  578TIP3    H227846   5.495   0.083   1.855 -0.7283 -1.0068  0.8958
  579TIP3   OH227847   0.789   1.482   0.116  0.1530  0.1261  0.1604
  579TIP3    H127848   0.827   1.476   0.204  2.2795 -1.2125 -0.7693
  579TIP3    H227849   0.834   1.557   0.076  0.9986 -0.7147 -0.5336
  580TIP3   OH227850   5.735   2.607   7.156 -0.4919  0.0729  0.0319
  580TIP3    H127851   5.816   2.653   7.134  0.6958 -2.1632 -0.6577
  580TIP3    H227852   5.671   2.638   7.093  0.0842  1.1601 -0.0425
  581TIP3   OH227853   7.905   6.875   1.431  0.1546  0.6704 -0.0372
  581TIP3    H127854   7.814   6.869   1.401  0.1194  0.1953  0.1755
  581TIP3    H227855   7.956   6.833   1.361  0.1650  0.4651  0.0952
  582TIP3   OH227856   4.035   0.830   1.743 -0.5427  0.4773  0.2390
  582TIP3    H127857   4.071   0.882   1.816 -1.6421  0.6307  0.6896
  582TIP3    H227858   3.941   0.845   1.748 -0.8761 -1.4514  0.2721
  583TIP3   OH227859   6.735   5.241   6.977 -0.7548 -0.7914  0.0800
  583TIP3    H127860   6.780   5.280   6.902 -0.5035  0.6903  0.9429
  583TIP3    H227861   6.657   5.200   6.941  0.1338 -1.4509 -1.1622
  584TIP3   OH227862   7.634   6.536   1.339 -0.4152 -0.2017  0.0593
  584TIP3    H127863   7.664   6.617   1.297  0.8031 -0.7804 -0.1964
  584TIP3    H227864   7.599   6.484   1.268 -1.8240  0.3457  0.3144
  585TIP3   OH227865   7.530   1.465   5.770 -0.2665  0.3738 -0.1437
  585TIP3    H127866   7.492   1.551   5.784 -2.3229 -0.0505 -2.3301
  585TIP3    H227867   7.610   1.481   5.720 -0.1679  1.0472  0.2284
  586TIP3   OH227868   2.131   2.924   7.923 -0.5584  0.2571 -0.0364
  586TIP3    H127869   2.050   2.963   7.890 -0.7759  1.6401  1.9716
  586TIP3    H227870   2.183   2.906   7.844 -2.5548 -0.1106 -1.3249
  587TIP3   OH227871   0.140   1.638   6.150  0.5348  0.0425 -0.6761
  587TIP3    H127872   0.162   1.564   6.094  1.5829  0.1359 -0.4028
  587TIP3    H227873   0.183   1.620   6.234 -0.2020  0.3786 -0.2078
  588TIP3   OH227874   2.579   7.799   1.307  0.2463 -0.6867  0.2584
  588TIP3    H127875   2.535   7.875   1.346  0.2772 -0.7667  0.4448
  588TIP3    H227876   2.509   7.734   1.297 -0.3972  0.2719 -2.3132
  589TIP3   OH227877   6.678   5.198   7.551 -0.4040 -0.1520 -0.1319
  589TIP3    H127878   6.767   5.224   7.576 -0.8086  0.7799  0.4300
  589TIP3    H227879   6.685   5.171   7.460  0.3683  0.3786 -0.2385
  590TIP3   OH227880   7.143   0.125   0.755  1.1521  0.2620  0.1511
  590TIP3    H127881   7.184   0.040   0.741 -2.2471 -1.3856 -0.9401
  590TIP3    H227882   7.119   0.156   0.668  0.7757  1.5120  0.6671
  591TIP3   OH227883   2.192   1.220   5.844  0.2008 -0.5029 -0.0794
  591TIP3    H127884   2.165   1.167   5.919 -1.4529  0.3118 -0.0638
  591TIP3    H227885   2.138   1.299   5.849  1.6437  0.6034 -0.8664
  592TIP3   OH227886   4.065   7.539   7.735  0.2211  0.3346 -0.3791
  592TIP3    H127887   3.969   7.539   7.725  0.2542 -0.1788 -0.8011
  592TIP3    H227888   4.082   7.600   7.805 -0.4996 -0.3281  0.4017
  593TIP3   OH227889   6.378   2.826   7.065 -0.0763 -0.4019  0.5186
  593TIP3    H127890   6.321   2.899   7.091  0.1807  0.3426 -0.9234
  593TIP3    H227891   6.326   2.748   7.084 -0.3792  0.1377  2.0396
  594TIP3   OH227892   2.068   6.939   7.783 -0.5288  0.1736 -0.3032
  594TIP3    H127893   1.995   6.929   7.722 -0.9490 -1.0971  0.3673
  594TIP3    H227894   2.071   7.032   7.803 -1.5162  0.3453 -0.8898
  595TIP3   OH227895   3.798   0.020   6.172 -0.3387 -1.0046 -0.3235
  595TIP3    H127896   3.729   0.070   6.127  0.9831  1.3973  0.1242
  595TIP3    H227897   3.754  -0.019   6.248 -1.3048  0.1689 -0.2470
  596TIP3   OH227898   1.020   1.119   1.645  0.3463  0.3888 -0.1253
  596TIP3    H127899   0.982   1.203   1.618  0.2559  0.3715 -0.0535
  596TIP3    H227900   0.951   1.055   1.630 -0.9939  0.8088  3.1940
  597TIP3   OH227901   2.321   6.309   0.665  0.1443 -0.1601 -0.4527
  597TIP3    H127902   2.339   6.324   0.758  0.1349  0.1567 -0.5018
  597TIP3    H227903   2.404   6.279   0.629  0.1431 -0.3021 -0.3382
  598TIP3   OH227904   5.013   7.316   1.864  0.1620 -0.5948  0.3134
  598TIP3    H127905   4.977   7.239   1.908  0.7067  0.4620  2.7960
  598TIP3    H227906   5.106   7.296   1.854  0.0881 -0.7241 -0.1289
  599TIP3   OH227907   1.950   3.852   2.309  0.2756  0.6123 -0.1973
  599TIP3    H127908   1.956   3.772   2.257  0.6062 -0.5031  1.5078
  599TIP3    H227909   2.018   3.909   2.273 -1.1054  0.8845 -2.5999
  600TIP3   OH227910   2.782   6.947   0.549 -0.0767 -0.4425  0.0498
  600TIP3    H127911   2.860   6.894   0.535  0.7971  0.8101 -0.0445
  600TIP3    H227912   2.810   7.014   0.612 -0.8488  0.5056 -0.5822
  601TIP3   OH227913   0.018   0.508   6.323  0.0055 -0.1240  0.1015
  601TIP3    H127914   0.022   0.599   6.353  0.0950 -0.2540  0.4903
  601TIP3    H227915   0.055   0.511   6.235 -3.0228  0.7617 -1.2450
  602TIP3   OH227916   0.821   1.115   1.398  0.1641  0.5212  0.3503
  602TIP3    H127917   0.835   1.199   1.442  0.8842 -0.2790  1.7058
  602TIP3    H227918   0.796   1.055   1.468  1.8637 -0.9300 -0.2215
  603TIP3   OH227919   0.676   2.952   7.912  0.1694  0.0837 -0.2384
  603TIP3    H127920   0.636   2.900   7.842 -0.6933 -2.3452  1.8805
  603TIP3    H227921   0.602   2.982   7.965  0.7905  1.9692 -0.3585
  604TIP3   OH227922   3.659   6.556   0.754 -0.4562 -0.5685  0.5568
  604TIP3    H127923   3.733   6.558   0.815  0.6863 -0.2168 -0.7907
  604TIP3    H227924   3.692   6.598   0.675 -1.5807 -1.8988 -0.6672
  605TIP3   OH227925   2.422   0.216   0.517  0.0925  0.4134  0.3698
  605TIP3    H127926   2.378   0.243   0.598 -0.2223 -0.9079  0.6681
  605TIP3    H227927   2.484   0.149   0.545 -1.9977 -2.2025 -0.7363
  606TIP3   OH227928   3.072   7.897   7.870  0.2342  0.4005  0.3833
  606TIP3    H127929   3.111   7.983   7.860  2.9555 -0.8536 -1.0888
  606TIP3    H227930   2.985   7.904   7.831  1.0440  2.0827 -1.2299
  607TIP3   OH227931   5.145   1.131   1.335  0.5122 -0.1133 -0.1567
  607TIP3    H127932   5.068   1.127   1.279 -0.2415  0.2719  0.8132
  607TIP3    H227933   5.215   1.161   1.278  0.5014 -2.5540 -1.5922
  608TIP3   OH227934   2.489   6.981   6.447 -0.3117 -0.0893 -0.0229
  608TIP3    H127935   2.510   7.056   6.392  1.7428 -0.6475 -0.0676
  608TIP3    H227936   2.529   6.907   6.403  0.6000 -0.6883  1.7132
  609TIP3   OH227937   1.156   3.818   7.735 -0.1321 -0.9784  0.0578
  609TIP3    H127938   1.088   3.872   7.695 -1.3919 -2.6112 -0.1489
  609TIP3    H227939   1.223   3.809   7.668 -0.5767 -0.8377 -0.4062
  610TIP3   OH227940   1.120   4.284   1.500 -0.1451 -0.4750 -0.1616
  610TIP3    H127941   1.083   4.225   1.435  0.8865 -1.3464  0.0286
  610TIP3    H227942   1.084   4.254   1.584  1.3331 -1.6418  0.0858
  611TIP3   OH227943   6.843   4.334   6.531 -0.0665  0.0324  0.7024
  611TIP3    H127944   6.770   4.275   6.551  0.8085 -1.1298  0.5796
  611TIP3    H227945   6.830   4.357   6.439  0.0733 -0.7073  0.4871
  612TIP3   OH227946   0.480   1.006   0.278 -0.0717  0.0279 -0.1550
  612TIP3    H127947   0.543   1.048   0.219 -2.4972  0.6722 -2.5027
  612TIP3    H227948   0.511   0.916   0.286  1.5184  0.4906 -0.5883
  613TIP3   OH227949   2.742   3.739   1.505 -0.0955  0.2474 -0.0658
  613TIP3    H127950   2.820   3.794   1.495 -0.3524  0.2913 -2.1306
  613TIP3    H227951   2.676   3.780   1.450 -0.5375 -1.6947 -1.0578
  614TIP3   OH227952   5.636   5.703   1.837 -0.1953  0.3264  0.6418
  614TIP3    H127953   5.570   5.637   1.860 -0.2952  0.4943  0.8378
  614TIP3    H227954   5.654   5.749   1.919 -2.3072  2.5428 -0.0092
  615TIP3   OH227955   2.248   3.224   6.218  0.4609 -0.1076 -0.5398
  615TIP3    H127956   2.190   3.253   6.148 -0.3805 -1.3966 -0.3948
  615TIP3    H227957   2.211   3.262   6.298  0.4044 -0.1012 -0.5695
  616TIP3   OH227958   8.064   4.620   0.304 -0.1200  0.5138  0.4008
  616TIP3    H127959   8.067   4.692   0.367  0.1159  0.4627  0.4494
  616TIP3    H227960   8.122   4.553   0.341 -0.9998 -0.0516  0.7875
  617TIP3   OH227961   2.436   2.895   2.415 -0.5401 -0.2828  0.6805
  617TIP3    H127962   2.478   2.809   2.412  0.1917  0.0827 -1.9970
  617TIP3    H227963   2.479   2.945   2.345 -2.5954  1.4831  0.5794
  618TIP3   OH227964   2.750   5.623   6.934 -0.8249  0.2799 -0.1143
  618TIP3    H127965   2.835   5.642   6.893 -1.7914 -1.6359 -3.4175
  618TIP3    H227966   2.773   5.584   7.018  1.4370  2.0327  0.2019
  619TIP3   OH227967   5.289   1.592   1.788  0.9677 -0.8671 -0.1609
  619TIP3    H127968   5.238   1.670   1.808  0.4516 -1.1715 -0.2718
  619TIP3    H227969   5.311   1.601   1.696  2.4302  0.0086  0.2381
  620TIP3   OH227970   1.398   6.436   7.405  0.0723  0.4343 -0.4815
  620TIP3    H127971   1.416   6.491   7.480 -0.5669  0.6423 -0.4768
  620TIP3    H227972   1.422   6.489   7.329 -0.3889  0.6624 -0.4700
  621TIP3   OH227973   1.828   4.945   1.765  0.0276  0.5022 -0.0339
  621TIP3    H127974   1.859   4.951   1.855 -0.3356  2.9863 -0.0126
  621TIP3    H227975   1.899   4.982   1.712 -0.6139  1.0338 -0.5419
  622TIP3   OH227976   5.994   5.405   2.123 -0.7630  0.0173 -0.0324
  622TIP3    H127977   6.075   5.396   2.173 -0.5474  0.1209 -0.3599
  622TIP3    H227978   5.935   5.339   2.160  0.0916 -1.3391 -1.0174
  623TIP3   OH227979   1.638   2.695   1.311  0.2521 -0.2882  0.3170
  623TIP3    H127980   1.576   2.709   1.383 -0.2728  0.7946 -0.3175
  623TIP3    H227981   1.682   2.779   1.300 -0.3514 -0.1428 -1.2411
  624TIP3   OH227982   1.322   4.098   7.858 -0.7066  0.0262  0.2658
  624TIP3    H127983   1.251   4.063   7.912  0.4744 -0.7119  1.4050
  624TIP3    H227984   1.392   4.032   7.865  0.5835  1.3311  0.2666
  625TIP3   OH227985   1.600   6.095   0.807  0.0862  0.0855 -0.4066
  625TIP3    H127986   1.591   6.018   0.751  0.9800  1.5515 -2.7248
  625TIP3    H227987   1.687   6.085   0.847 -0.0484 -0.3770 -0.2161
  626TIP3   OH227988   5.141   1.371   7.780  0.1001 -0.4268 -0.0959
  626TIP3    H127989   5.081   1.303   7.809 -0.6719  0.8676  1.5596
  626TIP3    H227990   5.148   1.359   7.685 -2.7015 -0.7191 -0.3491
  627TIP3   OH227991   7.711   7.835   1.688 -0.0317  0.1695  0.0229
  627TIP3    H127992   7.681   7.848   1.778  0.3628 -0.8813  0.3065
  627TIP3    H227993   7.740   7.923   1.660  2.4092  0.0499  1.8460
  628TIP3   OH227994   3.981   7.413   7.486  0.4086 -0.1028  0.3688
  628TIP3    H127995   3.945   7.481   7.542  0.9747 -0.5604  1.3033
  628TIP3    H227996   3.904   7.368   7.451  0.0032 -1.1675  2.4611
  629TIP3   OH227997   2.698   2.995   1.122 -0.3081 -0.1453 -0.0750
  629TIP3    H127998   2.731   3.053   1.191  1.2190 -0.8210 -0.1962
  629TIP3    H227999   2.756   2.919   1.125 -2.1723 -1.6350 -0.0254
  630TIP3   OH228000   0.937   2.274   7.674  0.4913 -0.1636  0.5933
  630TIP3    H128001   0.880   2.213   7.627  2.0748 -1.8113  0.7056
  630TIP3    H228002   0.889   2.294   7.754 -0.1908 -1.0722  0.4339
  631TIP3   OH228003   6.489   4.261   0.558  0.4084  0.1728 -0.3218
  631TIP3    H128004   6.511   4.354   0.559  0.2282  0.2188 -0.4948
  631TIP3    H228005   6.568   4.218   0.526 -0.1881  0.4645 -2.2933
  632TIP3   OH228006   4.830   7.985   7.475 -0.0645 -0.0206 -0.4732
  632TIP3    H128007   4.850   8.036   7.554 -2.0032 -2.2953  1.6474
  632TIP3    H228008   4.755   8.030   7.436  0.9677  1.1763 -1.1350
  633TIP3   OH228009   1.385   0.468   1.412  0.1582 -0.4828 -0.4132
  633TIP3    H128010   1.424   0.435   1.493 -0.0179 -1.7940 -0.8236
  633TIP3    H228011   1.294   0.440   1.417 -0.0372  0.1015 -0.7208
  634TIP3   OH228012   6.996   1.122   5.671  0.1434  0.4237  0.1201
  634TIP3    H128013   7.017   1.168   5.752  1.0866 -1.2798  0.8854
  634TIP3    H228014   7.032   1.034   5.682 -0.9346 -0.2979 -1.5885
  635TIP3   OH228015   6.894   1.161   1.768 -1.0838  0.0135  0.2541
  635TIP3    H128016   6.983   1.183   1.794 -0.9032 -0.4651  0.0346
  635TIP3    H228017   6.892   1.175   1.673 -1.4432  0.7060  0.3502
  636TIP3   OH228018   2.453   5.485   6.595  0.3312  0.3992  0.5116
  636TIP3    H128019   2.427   5.414   6.536 -0.7336  0.9340  0.3262
  636TIP3    H228020   2.421   5.564   6.554  1.8445  1.0529  0.5312
  637TIP3   OH228021   1.056   0.084   5.786  0.5311 -0.0030  0.4519
  637TIP3    H128022   1.071   0.140   5.862  1.5796  0.1879  0.1220
  637TIP3    H228023   1.027   0.144   5.717 -2.3038 -0.3990  1.1607
  638TIP3   OH228024   6.187   6.831   7.635 -0.1596 -0.3922 -0.2530
  638TIP3    H128025   6.131   6.841   7.559 -1.2438  0.5720  0.6250
  638TIP3    H228026   6.137   6.775   7.695 -0.2178  0.4835  0.5452
  639TIP3   OH228027   1.616   2.260   1.546 -0.1413  0.6924 -0.2629
  639TIP3    H128028   1.601   2.279   1.638 -0.4100  2.5697 -0.6527
  639TIP3    H228029   1.677   2.186   1.546  0.1596  0.9099  1.4062
  640TIP3   OH228030   5.227   7.657   7.360 -0.0819 -0.0535 -0.4890
  640TIP3    H128031   5.311   7.629   7.324  1.2125  0.9501  1.5643
  640TIP3    H228032   5.170   7.668   7.283  1.3613 -1.5965 -1.8624
  641TIP3   OH228033   0.683   2.547   7.597 -0.1458  0.0211 -0.0684
  641TIP3    H128034   0.603   2.550   7.544  0.7200  1.0956 -1.4035
  641TIP3    H228035   0.692   2.456   7.622 -1.0420 -0.3782 -1.1033
  642TIP3   OH228036   3.433   1.688   0.151  0.9695 -0.6380 -0.2196
  642TIP3    H128037   3.346   1.707   0.116 -0.5362 -1.7243  2.6220
  642TIP3    H228038   3.469   1.622   0.092  0.6343  1.0012 -2.3778
  643TIP3   OH228039   7.511   4.342   5.720 -0.6483  0.3360  0.0354
  643TIP3    H128040   7.455   4.368   5.647  1.0041  2.8378 -0.4797
  643TIP3    H228041   7.522   4.248   5.710 -0.2261  0.6273 -3.1640
  644TIP3   OH228042   2.718   2.451   0.209 -0.0955  0.1409  0.0170
  644TIP3    H128043   2.751   2.447   0.299 -0.5958  1.1002  0.2533
  644TIP3    H228044   2.623   2.444   0.217 -0.0760 -0.9395 -0.5350
  645TIP3   OH228045   4.598   5.621   7.096  0.1596  0.0466 -0.1810
  645TIP3    H128046   4.518   5.660   7.131  1.1349  1.6022  0.4214
  645TIP3    H228047   4.653   5.606   7.173  0.9553  0.2454 -0.6986
  646TIP3   OH228048   0.777   4.256   1.639 -0.6569 -0.0035  0.4034
  646TIP3    H128049   0.850   4.196   1.625 -0.9311 -0.3290  0.3512
  646TIP3    H228050   0.764   4.258   1.734 -0.1324  0.5993  0.4724
  647TIP3   OH228051   5.689   7.796   7.875  0.5267  0.2070  0.0893
  647TIP3    H128052   5.606   7.841   7.861 -0.4533 -0.6226  2.4777
  647TIP3    H228053   5.741   7.814   7.797 -1.1434  2.4011 -0.6156
  648TIP3   OH228054   4.661   1.353   0.353 -0.1412  0.1940 -0.5401
  648TIP3    H128055   4.753   1.359   0.327 -0.7226 -0.7842 -3.1681
  648TIP3    H228056   4.626   1.441   0.338  0.0752  0.2254 -0.8702
  649TIP3   OH228057   7.334   3.979   0.624  0.2334 -0.0543  0.1052
  649TIP3    H128058   7.334   3.971   0.719  1.7284  1.6679  0.3091
  649TIP3    H228059   7.325   3.890   0.592  2.2168 -0.9798  1.8966
  650TIP3   OH228060   0.660   7.403   7.448 -0.7761  0.1839 -0.3189
  650TIP3    H128061   0.600   7.476   7.458  1.1220  1.5889  2.1575
  650TIP3    H228062   0.747   7.443   7.449  0.4081 -2.0467  2.4301
  651TIP3   OH228063   5.669   3.234   2.689  0.2182  0.3633 -0.9939
  651TIP3    H128064   5.656   3.147   2.651 -0.7032 -1.7483  3.5412
  651TIP3    H228065   5.747   3.225   2.743  0.0338  2.3463 -0.3223
  652TIP3   OH228066   0.154   2.802   2.018  0.5783  0.0829  0.3707
  652TIP3    H128067   0.094   2.790   2.091  1.4100 -0.4254  0.9860
  652TIP3    H228068   0.178   2.895   2.021  0.1431  0.1999  0.3608
  653TIP3   OH228069   2.427   0.779   6.598 -0.2142  0.4485  0.0785
  653TIP3    H128070   2.457   0.691   6.575 -0.3240 -0.1276  1.9439
  653TIP3    H228071   2.333   0.768   6.616 -0.1202  0.8132  0.8422
  654TIP3   OH228072   8.029   3.102   5.719 -0.0066 -0.0143 -0.3183
  654TIP3    H128073   8.093   3.046   5.763 -0.4176 -1.0211 -0.9390
  654TIP3    H228074   8.073   3.129   5.638 -0.6107 -1.3856 -1.1499
  655TIP3   OH228075   3.196   3.715   7.719 -0.0236  0.2356  0.2577
  655TIP3    H128076   3.149   3.667   7.651  1.6266  0.4164 -1.0668
  655TIP3    H228077   3.249   3.648   7.762 -0.3169  0.2980  0.7240
  656TIP3   OH228078   3.652   2.826   6.683  0.5094 -0.0832 -0.3375
  656TIP3    H128079   3.569   2.782   6.663  1.2294 -0.8790 -1.6581
  656TIP3    H228080   3.656   2.899   6.621  0.2069  0.7712  0.6061
  657TIP3   OH228081   5.548   6.107   6.586 -0.0977  0.8152  0.1245
  657TIP3    H128082   5.589   6.184   6.545  0.8499  0.2574 -0.0112
  657TIP3    H228083   5.598   6.033   6.552 -1.4276  0.0716 -0.2580
  658TIP3   OH228084   4.693   7.113   0.146 -0.0727 -0.2865  0.1095
  658TIP3    H128085   4.609   7.074   0.172  0.0286 -0.2897  0.4328
  658TIP3    H228086   4.674   7.206   0.136 -0.0932 -0.2742  0.2679
  659TIP3   OH228087   6.223   2.474   5.876 -0.3712 -0.1474  0.7551
  659TIP3    H128088   6.276   2.447   5.801  0.1440  0.3650  0.9274
  659TIP3    H228089   6.186   2.558   5.850 -1.5402 -0.7510  0.4284
  660TIP3   OH228090   1.252   7.599   1.555  0.1223 -0.1001 -0.0617
  660TIP3    H128091   1.215   7.669   1.501 -1.8904 -1.2186 -0.2062
  660TIP3    H228092   1.255   7.637   1.643  0.3958  0.6209 -0.3643
  661TIP3   OH228093   7.310   6.624   6.584 -0.3313 -0.4739 -0.3700
  661TIP3    H128094   7.384   6.563   6.584  0.3822  0.3658 -0.2745
  661TIP3    H228095   7.318   6.672   6.501  0.9510  1.5957  0.8448
  662TIP3   OH228096   5.358   5.262   7.582  0.4417  0.1558 -0.0396
  662TIP3    H128097   5.310   5.293   7.658 -1.2304 -2.3168  0.0373
  662TIP3    H228098   5.291   5.248   7.515  1.4113 -0.8545 -0.8348
  663TIP3   OH228099   1.580   4.735   1.928 -0.3977 -0.4000  0.8714
  663TIP3    H128100   1.660   4.748   1.979  0.1489 -0.7214  0.1068
  663TIP3    H228101   1.528   4.814   1.944  1.4999  1.3954 -1.2336
  664TIP3   OH228102   5.835   3.697   7.859  0.0275 -0.1419  0.4097
  664TIP3    H128103   5.922   3.677   7.894 -0.0935 -0.4102  0.5556
  664TIP3    H228104   5.821   3.630   7.792 -0.1700 -0.2482  0.5563
  665TIP3   OH228105   4.878   0.197   1.109  0.1021 -0.5455 -0.4378
  665TIP3    H128106   4.878   0.253   1.187 -4.8685 -0.2269 -0.3174
  665TIP3    H228107   4.882   0.108   1.144 -0.1104 -0.3710  0.0464
  666TIP3   OH228108   6.625   3.444   0.528  0.0064 -0.1460  0.0042
  666TIP3    H128109   6.598   3.535   0.544  1.8426  0.3220  0.7217
  666TIP3    H228110   6.543   3.396   0.521 -1.0642  1.7419 -1.5882
  667TIP3   OH228111   7.212   6.908   7.406 -0.2766 -0.2142  0.4347
  667TIP3    H128112   7.306   6.889   7.408  0.0593  1.2647 -0.2404
  667TIP3    H228113   7.172   6.826   7.377  0.8525 -0.7064  0.2084
  668TIP3   OH228114   7.154   0.280   2.399  0.2369 -0.4826  0.8383
  668TIP3    H128115   7.216   0.287   2.326  0.9256 -0.3226  1.4284
  668TIP3    H228116   7.184   0.346   2.462 -1.8750  1.2416  0.1723
  669TIP3   OH228117   2.976   0.032   5.713  0.3361  0.1244  0.0502
  669TIP3    H128118   2.933   0.097   5.658  1.5933  0.4703 -0.5582
  669TIP3    H228119   2.984  -0.045   5.657  1.2557  0.3446 -0.1374
  670TIP3   OH228120   8.082   3.771   6.351 -0.1864 -0.3341  0.0247
  670TIP3    H128121   8.132   3.846   6.382 -0.1837 -0.6407  0.7697
  670TIP3    H228122   8.067   3.789   6.258  1.0826 -0.1064 -0.1591
  671TIP3   OH228123   3.877   5.709   0.974  0.3433 -0.0010  0.3401
  671TIP3    H128124   3.908   5.791   0.936 -0.2395 -0.7905 -1.9733
  671TIP3    H228125   3.945   5.645   0.951 -0.6113 -0.7446 -0.5162
  672TIP3   OH228126   2.927   2.468   0.033 -0.0542 -0.1618  0.7752
  672TIP3    H128127   2.835   2.457   0.058 -0.2261 -0.9960 -0.1798
  672TIP3    H228128   2.972   2.488   0.116 -1.1706  0.8421  1.1587
  673TIP3   OH228129   1.984   0.048   1.695  0.5386 -0.2235 -0.2007
  673TIP3    H128130   1.928   0.104   1.750  0.8145 -1.0513  0.9601
  673TIP3    H228131   2.016   0.106   1.627 -1.8233  0.2697 -0.9952
  674TIP3   OH228132   7.390   3.092   1.919  0.1069 -0.0811 -0.4324
  674TIP3    H128133   7.381   3.131   2.006  1.6610 -2.0235  0.6981
  674TIP3    H228134   7.452   3.019   1.932 -1.7115 -2.1779 -2.5824
  675TIP3   OH228135   1.682   0.115   7.518 -0.6062 -0.5527 -0.3030
  675TIP3    H128136   1.646   0.170   7.448 -0.6752  2.8077  2.1000
  675TIP3    H228137   1.605   0.084   7.565 -0.6286 -3.9118 -2.2602
  676TIP3   OH228138   0.908   3.473   0.218  0.1129 -0.3854  0.4253
  676TIP3    H128139   0.915   3.383   0.248  2.1454 -1.0119 -1.6193
  676TIP3    H228140   0.999   3.501   0.204 -0.5405  1.0092 -1.5254
  677TIP3   OH228141   4.257   0.022   7.469  0.3149  0.0759  0.3648
  677TIP3    H128142   4.172   0.062   7.491 -0.8776 -2.7085  1.2227
  677TIP3    H228143   4.321   0.087   7.499 -1.4724  1.3686  1.6591
  678TIP3   OH228144   7.142   4.488   2.262 -0.4649  0.1791 -0.1893
  678TIP3    H128145   7.159   4.491   2.357 -1.1579 -0.7342 -0.0316
  678TIP3    H228146   7.159   4.397   2.238  1.6550  0.8052 -1.3329
  679TIP3   OH228147   6.002   4.283   1.481 -0.3710 -0.7176  0.6181
  679TIP3    H128148   6.059   4.315   1.550 -0.5173 -0.1394  0.4759
  679TIP3    H228149   5.916   4.321   1.501 -0.9021 -2.1915  1.2593
  680TIP3   OH228150   4.406   3.122   1.787  0.6545 -0.6153  0.2380
  680TIP3    H128151   4.339   3.182   1.820  0.1053 -2.1469  2.0448
  680TIP3    H228152   4.448   3.087   1.866  1.4456 -2.0707 -0.7852
  681TIP3   OH228153   8.100   0.365   1.492  0.5663  0.2726 -0.3653
  681TIP3    H128154   8.174   0.402   1.541  0.7129 -0.5396  0.0483
  681TIP3    H228155   8.023   0.390   1.543  0.3822  2.4401 -1.6039
  682TIP3   OH228156   2.354   5.410   0.268  0.1449  0.0121  0.6731
  682TIP3    H128157   2.434   5.457   0.292 -0.1208  0.3992  0.8046
  682TIP3    H228158   2.369   5.321   0.297  1.0394 -0.2198 -0.4147
  683TIP3   OH228159   4.474   0.440   1.403  0.0779 -0.3057  0.3582
  683TIP3    H128160   4.565   0.439   1.434  0.4219  0.1916 -0.6052
  683TIP3    H228161   4.460   0.529   1.372  0.0593 -0.9829 -1.7232
  684TIP3   OH228162   1.124   0.670   1.192 -0.1365 -0.2000 -0.1134
  684TIP3    H128163   1.113   0.601   1.256  1.9693 -1.0068 -0.5392
  684TIP3    H228164   1.054   0.655   1.128 -0.6367 -0.9847  0.6031
  685TIP3   OH228165   2.302   0.765   1.106  0.1509  0.4331  0.0753
  685TIP3    H128166   2.352   0.816   1.043  1.1403 -1.4113 -0.7341
  685TIP3    H228167   2.367   0.737   1.172 -0.0051 -0.9913 -0.3318
  686TIP3   OH228168   5.219   5.632   5.126  0.0533 -0.4177  0.1384
  686TIP3    H128169   5.168   5.657   5.048  0.8492 -0.1852 -0.3169
  686TIP3    H228170   5.153   5.600   5.188 -0.6488 -0.1383 -0.4437
  687TIP3   OH228171   2.450   6.169   1.489 -0.0941 -0.2623  0.0559
  687TIP3    H128172   2.456   6.074   1.503  0.0777 -0.0050  2.0578
  687TIP3    H228173   2.373   6.195   1.538 -1.2136  0.4320 -1.9705
  688TIP3   OH228174   7.517   0.422   6.407  0.2994 -0.9801 -0.4870
  688TIP3    H128175   7.560   0.339   6.430 -0.0910 -0.9317  0.4812
  688TIP3    H228176   7.437   0.423   6.460  0.2024 -0.0674 -0.6294
  689TIP3   OH228177   7.508   1.345   6.470  0.2828 -0.2656 -0.0082
  689TIP3    H128178   7.536   1.274   6.413  0.0413 -1.4323  1.2731
  689TIP3    H228179   7.412   1.346   6.462  0.2691 -0.2426  0.1563
  690TIP3   OH228180   7.867   1.394   0.228 -0.3459  0.3588  0.1765
  690TIP3    H128181   7.856   1.444   0.147  1.3967  2.2812  1.0093
  690TIP3    H228182   7.921   1.451   0.283 -1.6571 -0.7841  2.7883
  691TIP3   OH228183   1.074   1.787   0.279 -0.4606  0.3227  0.4583
  691TIP3    H128184   1.165   1.767   0.256 -0.3400  0.5546  0.7184
  691TIP3    H228185   1.073   1.882   0.291 -0.2578  0.1132  2.4657
  692TIP3   OH228186   7.857   8.048   7.502 -0.2727  0.1674 -0.1908
  692TIP3    H128187   7.926   8.025   7.440  0.2830  2.0727 -0.3461
  692TIP3    H228188   7.776   8.043   7.451 -0.2170 -1.5269 -0.1557
  693TIP3   OH228189   1.702   5.429   6.187 -0.1075 -0.6323 -0.4144
  693TIP3    H128190   1.765   5.423   6.259 -1.1716  3.8529  1.2400
  693TIP3    H228191   1.749   5.475   6.118 -1.2581  2.5019  0.7295
  694TIP3   OH228192   2.451   7.533   0.922 -0.1784  0.2563 -0.6151
  694TIP3    H128193   2.419   7.623   0.931 -1.3791  0.0502 -2.2339
  694TIP3    H228194   2.488   7.530   0.834  0.4366 -0.6882 -0.3387
  695TIP3   OH228195   7.960   2.365   7.201 -0.2429  0.1707 -0.0733
  695TIP3    H128196   8.021   2.399   7.136 -0.7575  0.0074 -0.6547
  695TIP3    H228197   7.875   2.399   7.175 -0.8603 -1.8646 -0.9504
  696TIP3   OH228198   1.550   4.080   0.824 -0.1764 -0.0727  0.1762
  696TIP3    H128199   1.570   4.017   0.755  1.1464  1.1443 -0.6172
  696TIP3    H228200   1.455   4.084   0.827 -0.3135  0.6709 -2.4078
  697TIP3   OH228201   2.342   7.398   7.395 -0.0364  0.3170 -0.2188
  697TIP3    H128202   2.268   7.378   7.452 -0.3312 -4.2213 -1.8085
  697TIP3    H228203   2.418   7.359   7.440  0.2876 -0.3572 -1.3119
  698TIP3   OH228204   6.272   6.132   6.364  0.4143 -0.2425  0.0777
  698TIP3    H128205   6.278   6.149   6.458  0.9935 -0.0929  0.0171
  698TIP3    H228206   6.330   6.057   6.349  0.2468 -0.3282 -0.1429
  699TIP3   OH228207   6.349   4.921   2.057  0.0157 -0.3121  0.0767
  699TIP3    H128208   6.402   4.875   2.123  0.9709 -1.2247 -1.2684
  699TIP3    H228209   6.293   4.853   2.020 -1.1131  0.3628  0.4775
  700TIP3   OH228210   5.801   5.660   6.623  0.0754 -0.0609 -0.1625
  700TIP3    H128211   5.771   5.595   6.687  1.3797 -0.1500  0.3855
  700TIP3    H228212   5.895   5.643   6.614  0.9606  3.0662  1.6110
  701TIP3   OH228213   2.438   2.451   1.226 -0.5366  0.5718 -0.2006
  701TIP3    H128214   2.454   2.467   1.133  0.5909  1.2678  0.0937
  701TIP3    H228215   2.499   2.380   1.249  0.3305  1.4643  0.3420
  702TIP3   OH228216   1.544   0.457   6.457  0.2991  0.6104  0.3387
  702TIP3    H128217   1.556   0.532   6.516 -0.4601  0.7361  0.3424
  702TIP3    H228218   1.518   0.495   6.374  2.1031  0.4775 -0.3208
  703TIP3   OH228219   4.713   7.930   0.024  0.1047  0.7455  0.2326
  703TIP3    H128220   4.756   7.846   0.041 -1.3432  0.3540  2.3880
  703TIP3    H228221   4.779   7.996   0.044  0.8493  0.1312 -0.1737
  704TIP3   OH228222   4.436   5.473   6.868  0.1364  0.5722  0.0049
  704TIP3    H128223   4.468   5.553   6.910 -0.9459  0.0006  2.0268
  704TIP3    H228224   4.391   5.505   6.789  1.3358  1.7690 -0.2308
  705TIP3   OH228225   3.732   0.465   6.379  0.3303 -0.1473 -0.4165
  705TIP3    H128226   3.808   0.484   6.324 -0.1736  0.4775 -0.9078
  705TIP3    H228227   3.683   0.547   6.382  0.1336 -0.2802  0.6450
  706TIP3   OH228228   6.175   0.531   6.717 -0.4748 -0.2012 -0.3936
  706TIP3    H128229   6.231   0.609   6.722  0.5661 -0.9645  0.1967
  706TIP3    H228230   6.230   0.466   6.673 -0.0007 -1.6907  2.2130
  707TIP3   OH228231   0.107   1.436   1.147  0.3016  0.8323  0.0778
  707TIP3    H128232   0.117   1.531   1.135  0.0544  0.8974  0.3581
  707TIP3    H228233   0.195   1.401   1.135  0.5295  1.1802  0.6564
  708TIP3   OH228234   7.633   3.060   1.295 -0.3575 -0.0930  0.2377
  708TIP3    H128235   7.643   3.092   1.385 -0.4355 -2.5005  1.1802
  708TIP3    H228236   7.556   3.105   1.262 -0.2833  0.9034  1.3409
  709TIP3   OH228237   0.047   7.159   7.150 -0.1234 -0.0079 -0.2353
  709TIP3    H128238   0.005   7.182   7.067 -1.1719 -0.7360  0.0864
  709TIP3    H228239   0.014   7.072   7.171  1.3391 -0.4909  0.1711
  710TIP3   OH228240   7.272   1.887   1.640 -0.2288 -0.0623 -0.4958
  710TIP3    H128241   7.280   1.859   1.548 -3.8883 -0.6304 -0.7611
  710TIP3    H228242   7.277   1.806   1.690 -1.1844 -0.1159 -0.4716
  711TIP3   OH228243   7.411   5.168   6.239 -0.6225  0.4026  0.2599
  711TIP3    H128244   7.404   5.236   6.172 -1.3658 -1.0161 -1.1869
  711TIP3    H228245   7.321   5.141   6.256 -0.2926 -1.2832 -0.4028
  712TIP3   OH228246   3.272   2.539   6.434 -0.2677 -0.2973 -0.3785
  712TIP3    H128247   3.292   2.503   6.348 -2.1102 -0.4341 -0.7852
  712TIP3    H228248   3.261   2.632   6.419 -1.1341 -0.3977 -0.4139
  713TIP3   OH228249   2.870   4.986   6.517  0.2288 -0.3122 -0.2173
  713TIP3    H128250   2.832   5.037   6.444 -2.2623  1.0603  1.8584
  713TIP3    H228251   2.932   5.046   6.558  0.1902 -0.3559 -0.0942
  714TIP3   OH228252   2.021   2.115   6.350  0.4086 -0.1004  0.3175
  714TIP3    H128253   2.020   2.030   6.394  1.4141 -0.8769 -1.0647
  714TIP3    H228254   2.047   2.095   6.260 -1.1526  1.4758 -0.5457
  715TIP3   OH228255   5.823   0.867   7.938  0.0641  0.1880  0.1516
  715TIP3    H128256   5.808   0.891   8.030 -0.3207 -2.1412  0.7735
  715TIP3    H228257   5.913   0.894   7.921 -0.1484  1.4760  0.9019
  716TIP3   OH228258   1.966   6.231   6.029  0.1812  0.9199  0.1231
  716TIP3    H128259   1.931   6.218   5.940  1.6450 -0.3653 -0.3112
  716TIP3    H228260   2.042   6.173   6.033  0.8972  1.9147  1.8040
  717TIP3   OH228261   3.427   3.251   5.725 -0.5921 -0.2379 -0.5267
  717TIP3    H128262   3.430   3.340   5.760 -2.3113 -0.1958 -0.3958
  717TIP3    H228263   3.453   3.261   5.634  1.7996 -0.0307  0.1041
  718TIP3   OH228264   7.387   7.915   6.516  0.3068  0.1453  0.0316
  718TIP3    H128265   7.452   7.864   6.563  1.3161  1.6112  0.3039
  718TIP3    H228266   7.371   7.991   6.572 -0.2452  0.7377 -0.8926
  719TIP3   OH228267   6.207   6.024   0.543 -0.3077  0.1470  0.5082
  719TIP3    H128268   6.268   6.011   0.470  1.5285 -1.1957  2.1745
  719TIP3    H228269   6.250   6.090   0.599 -0.3924 -0.7382  1.6517
  720TIP3   OH228270   2.425   6.116   6.620  0.1507 -0.4292 -0.8344
  720TIP3    H128271   2.349   6.088   6.670  0.7178 -1.0680 -0.3282
  720TIP3    H228272   2.422   6.063   6.540 -0.6690  0.4866 -1.4487
  721TIP3   OH228273   0.433   5.467   0.952 -0.6194  0.8092 -0.5067
  721TIP3    H128274   0.463   5.388   0.906  0.0067  0.2169  0.8505
  721TIP3    H228275   0.513   5.516   0.970 -0.6678  0.3792  1.0569
  722TIP3   OH228276   6.616   6.496   2.687 -0.5294 -0.8982 -0.1670
  722TIP3    H128277   6.623   6.410   2.728  1.1871 -0.8166 -0.2398
  722TIP3    H228278   6.683   6.496   2.619  0.1304  0.8291  0.4381
  723TIP3   OH228279   7.522   1.735   6.564 -0.3040  0.1862  0.1622
  723TIP3    H128280   7.573   1.752   6.643 -1.5044 -0.4206  1.1057
  723TIP3    H228281   7.566   1.786   6.496  1.9728 -0.8932  0.7412
  724TIP3   OH228282   2.740   4.820   6.186 -0.0226  0.6506  0.2080
  724TIP3    H128283   2.693   4.821   6.103 -0.4219  1.1259  0.4320
  724TIP3    H228284   2.721   4.905   6.225  0.7665  0.7171  0.4522
  725TIP3   OH228285   0.300   0.662   6.138 -0.0129 -0.2931  0.2340
  725TIP3    H128286   0.335   0.748   6.116 -0.7044  0.8359  3.0708
  725TIP3    H228287   0.371   0.618   6.185 -0.5432 -0.1307  1.2253
  726TIP3   OH228288   6.298   5.395   1.217 -0.8244 -0.0789 -0.1888
  726TIP3    H128289   6.251   5.388   1.301  2.0974 -1.7157  1.4746
  726TIP3    H228290   6.293   5.307   1.180 -0.2193  0.0683 -0.6269
  727TIP3   OH228291   3.348   2.979   1.959 -0.1490 -0.1305  0.1677
  727TIP3    H128292   3.330   2.894   1.919  0.8031  0.0164 -0.6200
  727TIP3    H228293   3.264   3.007   1.995 -0.4885 -1.3680  0.3832
  728TIP3   OH228294   2.386   7.587   7.192  0.4301  0.0459  0.5269
  728TIP3    H128295   2.296   7.580   7.160  0.6586 -0.0078 -0.1191
  728TIP3    H228296   2.393   7.521   7.261  0.2786 -0.6797 -0.1398
  729TIP3   OH228297   3.531   6.880   0.218 -0.0371 -0.3934 -0.1576
  729TIP3    H128298   3.620   6.855   0.197  1.0237  1.9699  1.0775
  729TIP3    H228299   3.528   6.880   0.314 -0.3388  2.4561 -0.0696
  730TIP3   OH228300   7.533   0.175   7.324  1.6128 -0.2267  0.6401
  730TIP3    H128301   7.483   0.214   7.396 -0.3456 -0.1236 -0.6840
  730TIP3    H228302   7.533   0.081   7.343  3.4931  0.0231  2.1366
  731TIP3   OH228303   3.260   4.218   7.075 -0.3164  0.3603 -0.2190
  731TIP3    H128304   3.310   4.256   7.003 -2.1587  1.2117 -1.1231
  731TIP3    H228305   3.293   4.129   7.084  1.0931  0.7854 -0.9966
  732TIP3   OH228306   0.790   3.579   0.635  0.1072 -0.0439 -0.0635
  732TIP3    H128307   0.820   3.663   0.600 -0.6713 -0.3804 -1.6207
  732TIP3    H228308   0.770   3.597   0.727  3.4954  0.5758  0.6972
  733TIP3   OH228309   7.508   7.576   0.101 -0.5088 -0.5552  0.4548
  733TIP3    H128310   7.425   7.619   0.081 -0.5805  0.7014  3.0467
  733TIP3    H228311   7.536   7.538   0.018 -2.0568  1.7527 -1.2504
  734TIP3   OH228312   2.968   6.161   6.278 -0.2508  0.7731 -0.0534
  734TIP3    H128313   2.880   6.200   6.284 -1.0208 -0.9714  0.5833
  734TIP3    H228314   2.978   6.140   6.185  0.0686  2.1611 -0.3643
  735TIP3   OH228315   6.099   5.382   7.575 -0.4626 -0.2336  0.6239
  735TIP3    H128316   6.022   5.324   7.576 -0.2908 -0.4644  0.5541
  735TIP3    H228317   6.169   5.329   7.612 -0.1026 -0.3556 -0.2152
  736TIP3   OH228318   0.921   6.571   0.930  0.0232  0.6038  0.0220
  736TIP3    H128319   0.976   6.605   1.000  0.9910  1.1961 -0.9962
  736TIP3    H228320   0.870   6.646   0.901 -0.5368  0.3080  0.2183
  737TIP3   OH228321   0.535   2.082   7.915 -0.1021 -0.4383  0.1616
  737TIP3    H128322   0.493   2.084   7.829 -1.2826 -0.1847  0.7246
  737TIP3    H228323   0.538   2.174   7.942  0.1153 -0.5343  0.4665
  738TIP3   OH228324   5.271   5.055   6.098 -0.4571 -0.1907 -0.3551
  738TIP3    H128325   5.279   4.994   6.172  0.6391  0.2518 -0.0954
  738TIP3    H228326   5.325   5.016   6.030  1.2250  1.0619  0.2125
  739TIP3   OH228327   7.413   3.528   7.886  0.4174 -0.1031 -0.3673
  739TIP3    H128328   7.449   3.460   7.943  1.2047  0.0150 -0.7217
  739TIP3    H228329   7.480   3.596   7.882  0.2165  0.0673 -1.1294
  740TIP3   OH228330   2.978   1.306   0.324  0.0732  0.0238  0.5411
  740TIP3    H128331   3.019   1.391   0.307 -1.6847  0.6886 -0.5583
  740TIP3    H228332   3.040   1.242   0.288  0.8855  0.8762  0.3736
  741TIP3   OH228333   1.948   6.918   0.146  0.2910  0.9911 -0.6339
  741TIP3    H128334   2.023   6.970   0.116 -0.6339  2.4878 -0.4396
  741TIP3    H228335   1.897   6.902   0.067 -0.0041  1.3565 -0.5195
  742TIP3   OH228336   6.343   6.883   2.597 -0.3824 -0.3799  0.1412
  742TIP3    H128337   6.385   6.808   2.639  0.5746 -0.2794 -0.6155
  742TIP3    H228338   6.384   6.959   2.639 -0.7539 -0.2715  0.3152
  743TIP3   OH228339   3.286   3.074   6.606 -0.2940  0.6093  0.3249
  743TIP3    H128340   3.210   3.131   6.590 -2.3156 -2.2044 -0.8614
  743TIP3    H228341   3.310   3.042   6.520  0.8153 -0.3236  0.9587
  744TIP3   OH228342   5.140   0.802   2.185 -0.6995  0.4285 -0.4554
  744TIP3    H128343   5.110   0.892   2.171 -3.5305  0.1039  2.3057
  744TIP3    H228344   5.070   0.747   2.150 -0.8653 -0.5423  1.2884
  745TIP3   OH228345   4.232   5.544   7.671  0.0547 -0.5527  0.7972
  745TIP3    H128346   4.303   5.497   7.626 -0.9469 -0.1312 -1.3581
  745TIP3    H228347   4.269   5.631   7.689  0.7505 -0.9991  1.6418
  746TIP3   OH228348   6.801   4.951   6.655 -0.4871 -0.0332  0.5253
  746TIP3    H128349   6.725   4.931   6.711 -0.6194 -0.7531  0.0943
  746TIP3    H228350   6.876   4.924   6.707 -0.4845  1.1358  1.1561
  747TIP3   OH228351   4.734   1.314   1.390 -0.3579  0.1061 -0.4717
  747TIP3    H128352   4.791   1.244   1.422 -2.7451 -2.7617 -2.0205
  747TIP3    H228353   4.792   1.371   1.340  1.4329 -1.7566 -0.6548
  748TIP3   OH228354   5.806   4.888   6.063  0.2299 -0.2235  0.4456
  748TIP3    H128355   5.849   4.947   6.002 -0.8629  1.3008  1.0982
  748TIP3    H228356   5.839   4.914   6.149  0.7235 -1.4516  0.6578
  749TIP3   OH228357   0.613   0.377   0.466  0.6052  0.3254  0.1795
  749TIP3    H128358   0.627   0.452   0.524  0.7018  0.4100  0.0478
  749TIP3    H228359   0.521   0.355   0.477  0.5504  0.5291  0.1418
  750TIP3   OH228360   0.253   1.019   7.004  0.1318 -0.5150  0.1934
  750TIP3    H128361   0.339   1.030   6.964  0.6592  0.9717  1.6116
  750TIP3    H228362   0.195   0.999   6.931  1.8219 -2.6259 -0.6694
  751TIP3   OH228363   7.306   1.777   6.158 -0.3100 -0.6389 -0.4538
  751TIP3    H128364   7.226   1.746   6.199 -1.1581  0.6810 -1.0644
  751TIP3    H228365   7.372   1.711   6.182 -1.0783 -0.6515  1.8031
  752TIP3   OH228366   3.154   1.923   0.689 -0.0573  0.4175 -0.4389
  752TIP3    H128367   3.188   2.012   0.703 -0.8491  1.0030 -2.0460
  752TIP3    H228368   3.077   1.936   0.634 -0.7084 -1.2094  0.0501
  753TIP3   OH228369   2.803   7.138   1.086 -0.3502 -0.6523  0.0917
  753TIP3    H128370   2.777   7.067   1.026 -2.1687  1.2696 -1.5404
  753TIP3    H228371   2.859   7.194   1.034 -1.9506  1.0523  0.1157
  754TIP3   OH228372   2.814   7.027   7.373 -0.2873 -0.4893 -0.8118
  754TIP3    H128373   2.858   7.100   7.330  0.0365 -0.2399 -0.0719
  754TIP3    H228374   2.886   6.968   7.398 -0.2638  0.2749  1.0767
  755TIP3   OH228375   2.148   6.122   6.696 -0.7737  0.6363  0.4436
  755TIP3    H128376   2.083   6.148   6.761 -2.4929  2.5054 -1.7998
  755TIP3    H228377   2.098   6.078   6.628  0.2233  2.0452 -1.3199
  756TIP3   OH228378   6.684   4.972   1.114 -0.2349  0.5326  0.3919
  756TIP3    H128379   6.736   5.047   1.142 -0.3184  0.8585 -0.3073
  756TIP3    H228380   6.619   4.961   1.183  1.3537 -0.5053  1.7966
  757TIP3   OH228381   2.815   5.609   0.520 -0.2193 -0.3418  0.3092
  757TIP3    H128382   2.851   5.563   0.444 -2.4542 -0.9300 -0.4706
  757TIP3    H228383   2.885   5.669   0.546  2.0538 -2.7170  0.1313
  758TIP3   OH228384   0.920   5.799   1.829  0.3773 -0.4094 -0.0474
  758TIP3    H128385   0.949   5.784   1.919  0.4729  0.5364  0.0894
  758TIP3    H228386   0.825   5.784   1.831  0.2537  0.3885  0.3932
  759TIP3   OH228387   3.978   0.392   0.068  0.0249 -0.4037  0.6115
  759TIP3    H128388   3.890   0.393   0.105 -0.3785  0.3283 -0.3279
  759TIP3    H228389   3.981   0.469   0.011  0.4962 -1.6745 -1.1428
  760TIP3   OH228390   6.994   8.104   0.956  0.4720 -1.2666  0.5434
  760TIP3    H128391   7.062   8.154   0.910  0.0517 -1.1312  0.0479
  760TIP3    H228392   6.937   8.072   0.885 -0.5313 -0.5543  1.0005
  761TIP3   OH228393   1.263   0.801   6.640  0.5785  0.1724  0.3120
  761TIP3    H128394   1.208   0.759   6.573  1.6444 -0.3880 -0.2407
  761TIP3    H228395   1.260   0.894   6.619 -0.9364  0.2783  0.8896
  762TIP3   OH228396   1.109   4.701   0.705 -0.0842 -0.1529  0.0128
  762TIP3    H128397   1.039   4.721   0.768 -0.9048  1.0597 -1.2253
  762TIP3    H228398   1.190   4.723   0.752 -0.7507  2.2567  0.2018
  763TIP3   OH228399   2.099   6.510   5.561  0.1483  0.0027 -0.2862
  763TIP3    H128400   2.035   6.481   5.625  2.8880 -1.6882  1.9642
  763TIP3    H228401   2.055   6.503   5.476 -3.0399  0.5088  1.2140
  764TIP3   OH228402   7.774   2.218   1.569 -0.0070  0.0265  0.1137
  764TIP3    H128403   7.686   2.204   1.532  1.0666 -1.8138 -1.9829
  764TIP3    H228404   7.798   2.307   1.542 -0.0074 -0.6061 -2.1335
  765TIP3   OH228405   7.441   5.653   6.580 -0.2948 -0.3816  0.1516
  765TIP3    H128406   7.382   5.655   6.655 -1.0542  2.1018 -0.4431
  765TIP3    H228407   7.406   5.584   6.524 -1.0680 -0.7000  0.9921
  766TIP3   OH228408   6.444   3.612   1.626 -0.1043  0.0855  0.3248
  766TIP3    H128409   6.460   3.639   1.717  0.4509  2.0019 -0.2855
  766TIP3    H228410   6.378   3.542   1.633  1.3333 -1.1733  2.2907
  767TIP3   OH228411   7.030   5.467   1.894  0.3913  0.4554  1.0207
  767TIP3    H128412   7.066   5.540   1.845  0.7392 -0.0066  0.5752
  767TIP3    H228413   6.935   5.477   1.886  0.4260 -0.0697 -0.4786
  768TIP3   OH228414   5.929   4.803   1.231  0.2067  0.0925  0.4945
  768TIP3    H128415   6.019   4.824   1.207 -0.3953  1.3177 -0.8427
  768TIP3    H228416   5.892   4.759   1.155 -0.3933 -0.2319  0.9554
  769TIP3   OH228417   1.732   1.410   7.785  0.5291  0.1698 -0.1207
  769TIP3    H128418   1.792   1.348   7.744 -0.5642 -0.6207 -0.5842
  769TIP3    H228419   1.733   1.486   7.726 -0.0141 -0.4268 -0.9233
  770TIP3   OH228420   7.888   2.039   7.587  0.3035 -0.0628  0.5222
  770TIP3    H128421   7.871   2.042   7.682  1.3633 -0.5268  0.7329
  770TIP3    H228422   7.801   2.028   7.548  0.0365 -2.2042  1.5603
  771TIP3   OH228423   2.927   2.143   0.028  0.1692  0.7519 -0.5097
  771TIP3    H128424   2.930   2.238   0.021  0.5385  0.6935 -1.2251
  771TIP3    H228425   2.974   2.112  -0.049  1.0158  0.0027  0.2893
  772TIP3   OH228426   7.488   2.438   6.752 -0.0513 -0.6341  0.0028
  772TIP3    H128427   7.394   2.428   6.735  0.1242 -2.0133 -0.2872
  772TIP3    H228428   7.521   2.348   6.756  1.5381 -0.1736 -1.5014
  773TIP3   OH228429   0.574   6.336   2.008 -0.0071 -0.1872 -0.0939
  773TIP3    H128430   0.579   6.393   1.931  0.7721 -0.4547 -0.2454
  773TIP3    H228431   0.664   6.328   2.038 -0.1724 -0.9412  0.2178
  774TIP3   OH228432   7.403   3.808   7.566 -0.5492  0.0639  0.0190
  774TIP3    H128433   7.352   3.848   7.495  0.4595  0.8051 -0.3224
  774TIP3    H228434   7.414   3.717   7.540 -1.7618 -0.1349  0.1481
  775TIP3   OH228435   6.867   6.337   0.626  0.2201  0.1965 -0.1795
  775TIP3    H128436   6.879   6.286   0.546  2.0935  0.0737  0.1492
  775TIP3    H228437   6.833   6.274   0.689  0.3082 -0.0997 -0.4210
  776TIP3   OH228438   1.144   2.580   0.278  0.5047 -0.5152 -0.0880
  776TIP3    H128439   1.199   2.578   0.199 -0.2018 -1.4217 -0.5683
  776TIP3    H228440   1.111   2.670   0.282  0.3515 -0.5234 -0.9621
  777TIP3   OH228441   2.704   5.328   7.881 -0.0678  0.7335 -0.0677
  777TIP3    H128442   2.720   5.237   7.908 -1.7627 -0.0530 -1.5148
  777TIP3    H228443   2.789   5.358   7.847  1.0675  0.4474  2.2826
  778TIP3   OH228444   7.610   0.636   7.104 -0.2024 -0.3087 -0.3742
  778TIP3    H128445   7.520   0.666   7.112 -0.6094 -1.2878 -1.0651
  778TIP3    H228446   7.603   0.540   7.104  0.6652 -0.4032 -2.1562
  779TIP3   OH228447   5.618   5.147   0.173  0.3914 -0.2600  0.1541
  779TIP3    H128448   5.702   5.184   0.145 -0.2781  2.1011  1.0396
  779TIP3    H228449   5.642   5.080   0.237  1.6456 -1.3061 -1.3160
  780TIP3   OH228450   4.727   0.210   0.889 -0.0332  0.0418 -0.4367
  780TIP3    H128451   4.777   0.184   0.966  0.2332 -1.5511 -1.1150
  780TIP3    H228452   4.795   0.233   0.824 -0.2532  1.4555 -0.2060
  781TIP3   OH228453   0.251   4.952   0.516 -0.0624 -0.1717  0.3105
  781TIP3    H128454   0.168   4.977   0.476  0.5465  0.8531 -0.3507
  781TIP3    H228455   0.298   5.035   0.527  0.7253 -0.6978  1.0122
  782TIP3   OH228456   4.790   5.062   5.375 -0.1804  0.7301  0.2381
  782TIP3    H128457   4.754   4.973   5.369  0.7957  0.1871  1.9893
  782TIP3    H228458   4.714   5.119   5.362 -1.0700 -0.3688  0.4703
  783TIP3   OH228459   4.652   3.368   1.094 -0.8664 -0.5356  0.3608
  783TIP3    H128460   4.676   3.346   1.005  1.9775  1.1535  0.5880
  783TIP3    H228461   4.663   3.287   1.143  1.4116 -0.6422 -0.2093
  784TIP3   OH228462   7.267   7.922   2.561  0.3921 -0.2524  0.4759
  784TIP3    H128463   7.230   8.007   2.586 -0.1326  0.0561 -1.2105
  784TIP3    H228464   7.359   7.929   2.584  0.6621  1.3309 -0.8964
  785TIP3   OH228465   2.179   2.916   6.317 -0.1782 -0.1926 -0.4197
  785TIP3    H128466   2.121   2.862   6.370 -0.4615  2.0747  1.7853
  785TIP3    H228467   2.263   2.913   6.362 -0.4662  1.9080  0.3671
  786TIP3   OH228468   0.617   7.220   7.657 -0.2986  0.1614  0.5386
  786TIP3    H128469   0.574   7.249   7.577 -0.4749  0.4088  0.7238
  786TIP3    H228470   0.687   7.283   7.672 -0.5425  0.3685  0.8188
  787TIP3   OH228471   1.251   7.119   1.300  0.4181 -0.0242 -0.2971
  787TIP3    H128472   1.274   7.190   1.361 -0.1601 -0.1507  0.0812
  787TIP3    H228473   1.263   7.039   1.351  0.4326 -0.1617 -0.5158
  788TIP3   OH228474   5.941   4.363   7.472  0.1773  0.5011 -0.0520
  788TIP3    H128475   6.023   4.360   7.521 -0.8937 -0.8786  1.7902
  788TIP3    H228476   5.873   4.375   7.539 -1.1599  1.6280 -1.5183
  789TIP3   OH228477   5.923   2.717   6.948 -0.3929 -0.2103  0.4131
  789TIP3    H128478   5.942   2.746   6.860 -2.4783 -0.0662 -0.0452
  789TIP3    H228479   5.866   2.784   6.984 -1.0459 -1.1582  1.2046
  790TIP3   OH228480   7.817   2.935   7.490 -0.4301 -0.3381  0.1595
  790TIP3    H128481   7.873   2.969   7.421 -3.0005  0.2184 -1.8078
  790TIP3    H228482   7.818   3.003   7.558  0.8315 -0.1316 -0.0430
  791TIP3   OH228483   6.138   6.530   1.940  0.2945 -0.0438  0.4813
  791TIP3    H128484   6.200   6.485   1.881 -0.7305  0.5714 -1.1430
  791TIP3    H228485   6.062   6.471   1.944 -1.1541  1.5095 -1.8452
  792TIP3   OH228486   4.475   7.561   6.118 -0.5540 -0.6159 -0.3940
  792TIP3    H128487   4.464   7.646   6.075  1.0478 -0.0241  0.2691
  792TIP3    H228488   4.445   7.497   6.053 -0.0273  0.3456 -1.6295
  793TIP3   OH228489   1.410   4.420   0.774  0.2667 -0.3735  0.3279
  793TIP3    H128490   1.343   4.374   0.824  0.8717 -2.8127 -0.9402
  793TIP3    H228491   1.490   4.410   0.826  0.5241 -1.3322 -0.2350
  794TIP3   OH228492   6.303   8.049   2.304 -0.6697  0.3456  0.4451
  794TIP3    H128493   6.368   8.009   2.361  0.2025  2.9593  1.4423
  794TIP3    H228494   6.249   8.103   2.362 -1.1196  1.4070 -0.8898
  795TIP3   OH228495   3.984   4.989   7.195  0.5246  0.0331 -0.1803
  795TIP3    H128496   3.914   5.054   7.187  0.9475  0.4915 -0.1794
  795TIP3    H228497   4.054   5.034   7.242  0.9554 -0.3137 -0.4781
  796TIP3   OH228498   6.400   2.633   0.527 -0.1817  0.1473  0.4143
  796TIP3    H128499   6.410   2.648   0.433  2.3580 -0.1661  0.5561
  796TIP3    H228500   6.330   2.568   0.534 -1.8105  1.6455 -1.0839
  797TIP3   OH228501   7.731   4.279   0.946 -0.1182 -0.3413 -0.1575
  797TIP3    H128502   7.733   4.240   0.858 -0.3298 -0.4810 -0.1033
  797TIP3    H228503   7.773   4.214   1.002  0.1772 -0.1739 -0.1848
  798TIP3   OH228504   7.435   4.069   1.883 -0.0114  0.4496 -0.1934
  798TIP3    H128505   7.428   4.155   1.924 -2.0517  0.5311 -0.5942
  798TIP3    H228506   7.456   4.010   1.955  2.0944  1.3230 -0.0177
  799TIP3   OH228507   0.852   3.525   7.567  0.0593  0.3211 -0.1053
  799TIP3    H128508   0.855   3.464   7.641 -3.7341  1.0390  0.8443
  799TIP3    H228509   0.908   3.598   7.594  0.2952 -0.3057  1.1893
  800TIP3   OH228510   0.433   4.340   6.389 -0.5622 -0.1295  0.7381
  800TIP3    H128511   0.354   4.349   6.336  0.2312 -2.5049 -1.0382
  800TIP3    H228512   0.438   4.246   6.407  0.5436  0.2932  2.9929
  801TIP3   OH228513   0.668   6.068   1.838  0.0318  0.7701  0.2340
  801TIP3    H128514   0.644   6.147   1.885  0.1117  0.5598  0.6333
  801TIP3    H228515   0.697   6.007   1.906 -1.0899  0.0008  0.0581
  802TIP3   OH228516   4.288   1.483   6.569 -0.1160  0.1763 -0.2670
  802TIP3    H128517   4.348   1.541   6.616  1.3960 -0.5180 -1.2873
  802TIP3    H228518   4.231   1.543   6.521 -1.7627  0.9232  2.3560
  803TIP3   OH228519   1.349   5.457   0.266  0.0358 -0.8552 -0.3408
  803TIP3    H128520   1.422   5.422   0.216 -1.8207 -3.2602 -1.5928
  803TIP3    H228521   1.323   5.386   0.324 -0.2404  0.5838  1.3882
  804TIP3   OH228522   6.379   3.637   1.907 -0.2475 -0.1717  0.3964
  804TIP3    H128523   6.464   3.679   1.901 -0.1652 -0.5442 -1.6300
  804TIP3    H228524   6.385   3.581   1.985  1.3651 -0.2135  0.2677
  805TIP3   OH228525   2.907   0.132   1.211 -0.0963  0.2021  0.3304
  805TIP3    H128526   2.825   0.096   1.244 -0.0771 -2.1904 -1.8675
  805TIP3    H228527   2.970   0.120   1.282 -1.1994  0.3048  1.3458
  806TIP3   OH228528   3.219   6.097   6.052  0.0822 -0.3954  0.3383
  806TIP3    H128529   3.314   6.095   6.039 -0.0721  1.1342 -1.4365
  806TIP3    H228530   3.187   6.158   5.985 -2.1380 -0.7208  1.0299
  807TIP3   OH228531   3.215   4.425   5.515  0.2713 -0.3007 -0.1306
  807TIP3    H128532   3.300   4.413   5.473  1.2644  1.8053  1.1006
  807TIP3    H228533   3.177   4.501   5.472 -0.6431 -0.7405 -0.1250
  808TIP3   OH228534   3.911   6.404   1.558  0.3162 -0.3561 -0.4213
  808TIP3    H128535   3.912   6.352   1.478 -2.8359 -1.8312  0.3686
  808TIP3    H228536   3.863   6.484   1.533  0.2237 -0.3611 -0.2585
  809TIP3   OH228537   0.768   3.199   7.481  0.5851  0.7704  0.1291
  809TIP3    H128538   0.693   3.144   7.461  0.5027  0.4116  1.3485
  809TIP3    H228539   0.759   3.274   7.423 -0.4496  0.5074 -0.0646
  810TIP3   OH228540   1.393   1.648   7.508 -0.0204 -0.7806  0.2050
  810TIP3    H128541   1.399   1.567   7.559  0.4907  0.1168  1.6222
  810TIP3    H228542   1.483   1.676   7.497 -0.2617  0.2817  0.8599
  811TIP3   OH228543   5.210   2.509   0.362 -0.1103  0.1831 -0.1461
  811TIP3    H128544   5.304   2.497   0.348  0.0502  0.1745  0.8464
  811TIP3    H228545   5.198   2.604   0.371  0.4084  0.0656  3.2751
  812TIP3   OH228546   0.795   7.752   7.058 -0.4197  0.0230  0.1330
  812TIP3    H128547   0.881   7.710   7.057 -0.8144 -0.9262  2.0489
  812TIP3    H228548   0.766   7.751   6.967  0.6981 -1.5364 -0.2284
  813TIP3   OH228549   0.513   6.953   6.060  0.0175  0.1505 -0.2691
  813TIP3    H128550   0.562   6.925   5.983  1.8500 -0.0264  0.8948
  813TIP3    H228551   0.510   7.049   6.053  1.2185  0.2240  0.0075
  814TIP3   OH228552   7.225   4.731   7.442  0.1069 -0.0922 -0.3486
  814TIP3    H128553   7.269   4.776   7.514 -2.2623  2.1246 -0.1246
  814TIP3    H228554   7.158   4.677   7.485  1.2337 -1.9375 -0.7770
  815TIP3   OH228555   5.411   4.920   2.308 -0.7995  0.3089  0.3109
  815TIP3    H128556   5.334   4.971   2.333 -2.0101 -0.5567 -1.4460
  815TIP3    H228557   5.377   4.834   2.284  0.8065 -0.3196  0.1246
  816TIP3   OH228558   1.038   2.832   1.850  0.4123 -0.1804 -0.1283
  816TIP3    H128559   0.945   2.810   1.854  1.1035 -3.5063  0.8635
  816TIP3    H228560   1.056   2.878   1.932 -0.2258  0.0070 -0.0869
  817TIP3   OH228561   5.463   3.612   7.484  0.6632  0.0825 -0.1694
  817TIP3    H128562   5.421   3.650   7.407 -0.5985  0.6282  0.7568
  817TIP3    H228563   5.553   3.645   7.480  0.1687  1.4792 -0.5198
  818TIP3   OH228564   4.216   1.191   7.418  0.0017 -0.4633  0.0542
  818TIP3    H128565   4.249   1.185   7.508  0.5114 -0.2413 -0.1095
  818TIP3    H228566   4.122   1.176   7.426 -0.2407  1.2870  0.8448
  819TIP3   OH228567   5.775   8.054   6.923 -0.6623 -0.0810  0.2574
  819TIP3    H128568   5.797   8.142   6.953 -2.1864  1.3036 -2.3115
  819TIP3    H228569   5.733   8.012   6.998  0.3033  1.2454  1.5936
  820TIP3   OH228570   4.441   5.888   7.408 -0.1729  0.1460 -0.3873
  820TIP3    H128571   4.413   5.915   7.496  1.8649 -1.2592  0.7955
  820TIP3    H228572   4.434   5.967   7.355 -1.2151  1.1056  1.1101
  821TIP3   OH228573   3.182   1.778   0.082 -0.7297 -0.1687  0.4209
  821TIP3    H128574   3.154   1.852   0.136 -0.6383  1.0878 -1.1977
  821TIP3    H228575   3.175   1.809  -0.008  0.7328 -1.6334 -0.2551
  822TIP3   OH228576   2.702   1.655   0.640  0.2613  0.3536  0.0126
  822TIP3    H128577   2.630   1.717   0.629  1.8930  2.0988 -1.9731
  822TIP3    H228578   2.741   1.678   0.725 -0.4380  0.6205  0.2650
  823TIP3   OH228579   7.787   0.642   1.127 -0.6551 -0.3803 -0.3501
  823TIP3    H128580   7.700   0.658   1.165 -0.9392  0.2080 -1.2050
  823TIP3    H228581   7.801   0.716   1.068  1.0691  0.2869  0.8477
  824TIP3   OH228582   4.965   4.082   6.558  0.3523 -0.1752  0.2993
  824TIP3    H128583   4.881   4.080   6.513  1.3306  0.7333 -1.7341
  824TIP3    H228584   4.947   4.125   6.641 -1.4681 -1.5302  0.6727
  825TIP3   OH228585   5.614   3.208   5.786  0.7289 -0.3161  0.2227
  825TIP3    H128586   5.576   3.288   5.750 -0.3483 -0.7655  0.2986
  825TIP3    H228587   5.546   3.142   5.771  1.5026 -1.1610  0.3743
  826TIP3   OH228588   0.876   7.951   7.643 -0.1421  0.5838 -0.4994
  826TIP3    H128589   0.968   7.959   7.668  0.1934 -1.4495 -0.9386
  826TIP3    H228590   0.878   7.942   7.547 -0.7952  0.4534 -0.5063
  827TIP3   OH228591   7.789   0.985   6.388 -0.4113  0.5852  0.1533
  827TIP3    H128592   7.725   0.992   6.317  1.6083  0.9020 -1.7485
  827TIP3    H228593   7.819   1.075   6.402  1.1149  0.1922 -0.4735
  828TIP3   OH228594   5.140   3.607   7.552 -0.3014  0.2516 -0.1672
  828TIP3    H128595   5.136   3.517   7.521  0.5988  0.9735 -2.6418
  828TIP3    H228596   5.230   3.634   7.536 -0.7238  1.7945 -0.1463
  829TIP3   OH228597   4.449   1.207   6.169 -0.3856  0.0697 -0.4219
  829TIP3    H128598   4.413   1.265   6.101 -0.0501  0.7034 -0.0736
  829TIP3    H228599   4.506   1.147   6.122  1.0954  1.5147 -0.5488
  830TIP3   OH228600   7.306   4.166   7.459  0.4138  0.0469 -0.0551
  830TIP3    H128601   7.236   4.102   7.446 -0.2698  0.9159 -0.8031
  830TIP3    H228602   7.309   4.178   7.554  1.4252 -1.9974  0.2315
  831TIP3   OH228603   4.772   6.406   6.981  0.4370 -0.0013 -0.0475
  831TIP3    H128604   4.687   6.449   6.993  0.5911  0.3507 -0.2180
  831TIP3    H228605   4.792   6.368   7.067  0.1284 -0.0501  0.0042
  832TIP3   OH228606   4.908   0.857   1.882  0.7273 -1.0210 -0.1540
  832TIP3    H128607   4.943   0.923   1.942  0.7146 -0.4903 -0.7149
  832TIP3    H228608   4.924   0.774   1.926  1.6785 -0.7159  0.1131
  833TIP3   OH228609   1.353   0.227   0.052 -0.2659 -0.6643  0.2756
  833TIP3    H128610   1.333   0.173  -0.024  2.1879 -0.8493 -0.3386
  833TIP3    H228611   1.415   0.174   0.103  1.9385  1.3433 -0.1553
  834TIP3   OH228612   3.353   3.212   7.011 -0.1492  0.3968  0.0589
  834TIP3    H128613   3.382   3.164   6.933 -0.8007 -0.7732  0.5064
  834TIP3    H228614   3.434   3.238   7.054  0.2685  2.4536 -1.7797
  835TIP3   OH228615   1.893   5.193   0.216  0.0642  0.1171  0.1746
  835TIP3    H128616   1.950   5.188   0.293  0.6762 -0.0566 -0.2858
  835TIP3    H228617   1.891   5.285   0.193 -0.6473  0.2646  0.7830
  836TIP3   OH228618   7.567   5.070   7.636 -0.0337 -0.0963 -0.5288
  836TIP3    H128619   7.659   5.059   7.663 -0.2781 -1.3460 -0.1414
  836TIP3    H228620   7.569   5.062   7.541  0.3337  0.5752 -0.5888
  837TIP3   OH228621   1.673   6.052   5.992  0.1888 -0.1962  0.2282
  837TIP3    H128622   1.724   6.101   5.927  0.9271 -0.7297  0.3939
  837TIP3    H228623   1.602   6.112   6.016 -0.5448 -0.2548 -1.5919
  838TIP3   OH228624   3.112   1.985   0.252  0.1263  0.0659 -0.1987
  838TIP3    H128625   3.041   2.027   0.205  0.5048  0.7373 -0.1792
  838TIP3    H228626   3.108   2.022   0.340  0.9100  0.6210 -0.3848
  839TIP3   OH228627   7.880   1.397   1.153  0.1732 -0.4138 -0.0070
  839TIP3    H128628   7.967   1.438   1.156  0.7902 -1.6714 -0.2442
  839TIP3    H228629   7.886   1.323   1.214 -1.3468  0.5745  1.4550
  840TIP3   OH228630   2.636   6.779   6.320  0.0126 -0.2147  0.1976
  840TIP3    H128631   2.713   6.766   6.264 -0.3972 -0.6847 -0.2765
  840TIP3    H228632   2.626   6.696   6.366  0.0218 -0.0184  0.5535
  841TIP3   OH228633   1.067   6.125   7.224  0.0387  0.3287  0.4743
  841TIP3    H128634   1.101   6.190   7.285 -0.5461 -0.5306  1.7672
  841TIP3    H228635   1.142   6.101   7.170  0.6978  0.7805  1.1705
  842TIP3   OH228636   0.334   6.262   0.271 -0.5630 -0.1137  0.5109
  842TIP3    H128637   0.255   6.221   0.305 -1.0876  0.6959  0.3066
  842TIP3    H228638   0.400   6.193   0.272 -1.4955 -1.0467 -0.1097
  843TIP3   OH228639   5.443   4.368   1.146 -0.2459 -0.1498 -0.0406
  843TIP3    H128640   5.432   4.355   1.051 -0.5507 -1.2713  0.1399
  843TIP3    H228641   5.537   4.356   1.161 -0.1348  0.4243 -0.2538
  844TIP3   OH228642   0.803   3.062   6.183  0.0141  0.0044  0.3634
  844TIP3    H128643   0.709   3.041   6.189  0.0519 -0.1162  0.5602
  844TIP3    H228644   0.813   3.101   6.096 -0.7823  2.8561  1.4284
  845TIP3   OH228645   3.432   7.684   7.241 -0.1498 -0.5113 -0.0136
  845TIP3    H128646   3.403   7.635   7.317 -2.0158 -0.0209 -0.3674
  845TIP3    H228647   3.424   7.776   7.267  0.2266 -0.3507 -0.4414
  846TIP3   OH228648   7.942   4.313   7.606 -0.6915  0.2755 -0.3691
  846TIP3    H128649   7.872   4.339   7.546 -0.8090  0.0728 -0.3182
  846TIP3    H228650   7.987   4.241   7.562  0.2202  1.1584 -0.9356
  847TIP3   OH228651   5.720   0.993   7.141 -0.2668  0.1305 -0.3483
  847TIP3    H128652   5.781   1.062   7.167 -0.6386  0.2612  0.1937
  847TIP3    H228653   5.707   0.941   7.220  1.8575 -2.0247 -1.2843
  848TIP3   OH228654   3.728   3.821   6.705 -0.2903  0.4493  0.5254
  848TIP3    H128655   3.821   3.800   6.710 -0.4464 -0.2496  0.6279
  848TIP3    H228656   3.695   3.768   6.633 -1.2329 -1.8440  2.5150
  849TIP3   OH228657   1.980   0.676   6.846 -0.2303  0.3833  0.8186
  849TIP3    H128658   1.948   0.714   6.928 -2.6444 -0.2091  0.2382
  849TIP3    H228659   1.913   0.700   6.781  1.6062  0.8332 -1.0010
  850TIP3   OH228660   1.404   3.828   1.318 -0.3321 -0.3797  0.5810
  850TIP3    H128661   1.441   3.905   1.276  0.2159 -0.4693  0.8839
  850TIP3    H228662   1.367   3.777   1.246 -0.3699 -0.0123  0.3376
  851TIP3   OH228663   5.927   3.527   0.568 -0.0288 -1.3411 -0.1361
  851TIP3    H128664   5.904   3.511   0.477  0.7450  0.9004 -0.7816
  851TIP3    H228665   5.849   3.565   0.607  0.5841  0.7033 -0.7680
  852TIP3   OH228666   6.983   3.604   0.205 -0.0485 -0.1535 -0.5068
  852TIP3    H128667   6.950   3.552   0.132 -0.4763 -0.8649  0.1774
  852TIP3    H228668   6.910   3.608   0.267  0.6517 -0.5127  0.3702
  853TIP3   OH228669   2.438   4.667   0.667 -0.5021 -0.0653 -0.5010
  853TIP3    H128670   2.526   4.634   0.686 -0.6063 -0.4233 -0.6373
  853TIP3    H228671   2.452   4.735   0.601 -0.3585 -0.3311 -0.7429
  854TIP3   OH228672   2.312   0.464   6.832  0.3809 -0.2591  0.0609
  854TIP3    H128673   2.369   0.407   6.883  1.1886  1.1687  0.8186
  854TIP3    H228674   2.367   0.495   6.760  0.3548  0.5626  0.3891
  855TIP3   OH228675   5.149   6.495   6.263 -0.3877 -0.1690 -0.4774
  855TIP3    H128676   5.190   6.572   6.224  0.4718 -0.1325  0.4633
  855TIP3    H228677   5.082   6.469   6.199  0.7989  0.0203 -1.8576
  856TIP3   OH228678   8.075   6.721   7.324  0.4172  0.3832 -0.0614
  856TIP3    H128679   8.061   6.706   7.417  0.6132 -0.0142 -0.0939
  856TIP3    H228680   8.155   6.672   7.304 -0.2841 -0.5222 -0.6969
  857TIP3   OH228681   0.322   1.631   7.177  0.0199  0.1191 -0.0775
  857TIP3    H128682   0.234   1.624   7.214 -0.7761  1.1188 -1.6731
  857TIP3    H228683   0.354   1.717   7.205 -0.4314  0.7128 -1.2836
  858TIP3   OH228684   5.770   3.391   0.267  0.3677 -0.1816 -0.0022
  858TIP3    H128685   5.796   3.479   0.238  0.3729 -0.1628  0.0602
  858TIP3    H228686   5.819   3.332   0.210 -1.4529 -0.1502 -1.7167
  859TIP3   OH228687   5.169   2.407   2.362  0.5261 -0.5140  0.4978
  859TIP3    H128688   5.074   2.416   2.365  0.6477  1.9487 -0.5007
  859TIP3    H228689   5.186   2.347   2.290 -0.2694  0.4725 -0.5474
  860TIP3   OH228690   6.278   0.522   1.991  0.0365  0.7108 -0.6777
  860TIP3    H128691   6.282   0.524   2.087 -1.1380  0.7867 -0.6186
  860TIP3    H228692   6.273   0.429   1.969 -1.7910  0.7477 -0.5398
  861TIP3   OH228693   4.998   6.343   2.090 -0.6552  0.1656  0.3711
  861TIP3    H128694   4.908   6.375   2.095 -0.4102  1.8535 -3.0191
  861TIP3    H228695   5.006   6.306   2.003  1.8619 -0.2537  0.7029
  862TIP3   OH228696   7.934   3.604   6.728  0.1246 -1.2244  0.2948
  862TIP3    H128697   7.933   3.624   6.822 -3.3435 -0.5673  0.2510
  862TIP3    H228698   7.943   3.690   6.685  0.1667 -1.3546  0.0419
  863TIP3   OH228699   3.808   6.643   0.526  0.1325 -0.4113 -0.2551
  863TIP3    H128700   3.796   6.732   0.491  1.8923 -0.2533 -0.5512
  863TIP3    H228701   3.879   6.652   0.590 -0.4059 -1.4258  0.5071
  864TIP3   OH228702   3.862   3.058   1.736 -0.0947 -0.2773  0.2414
  864TIP3    H128703   3.904   2.973   1.746  0.9832  0.4310  2.2257
  864TIP3    H228704   3.899   3.112   1.805 -1.9796  1.3414  0.0903
  865TIP3   OH228705   7.873   7.274   0.624 -0.1464 -0.2616  0.1483
  865TIP3    H128706   7.793   7.327   0.622  0.7997  1.5168  2.5916
  865TIP3    H228707   7.944   7.339   0.628  1.5712 -1.7533 -2.7652
  866TIP3   OH228708   4.560   0.454   0.926 -0.9270  0.0344 -0.1176
  866TIP3    H128709   4.588   0.367   0.897  0.0602  0.2073  0.2684
  866TIP3    H228710   4.571   0.510   0.849  0.3172  0.1994  0.1475
  867TIP3   OH228711   6.243   7.980   0.052 -1.1505  0.6435 -0.3646
  867TIP3    H128712   6.179   7.930   0.103 -0.4409  0.5062  0.4124
  867TIP3    H228713   6.204   7.986  -0.036 -1.6674 -0.4898 -0.2347
  868TIP3   OH228714   8.103   4.150   7.444  0.1239  0.2973 -0.1215
  868TIP3    H128715   8.083   4.137   7.352 -1.8630  1.3021  0.1171
  868TIP3    H228716   8.110   4.061   7.479 -0.2631 -0.1003 -1.0218
  869TIP3   OH228717   0.381   1.333   7.438 -0.1223  0.8230 -0.0099
  869TIP3    H128718   0.365   1.297   7.350 -1.8664  2.4486 -0.4130
  869TIP3    H228719   0.391   1.256   7.493  1.8423 -0.2563 -1.7325
  870TIP3   OH228720   2.851   7.333   6.746 -0.0472 -0.4528 -0.3993
  870TIP3    H128721   2.893   7.342   6.661 -0.2906 -0.2288 -0.4971
  870TIP3    H228722   2.907   7.383   6.806  0.8735 -1.7146 -0.1611
  871TIP3   OH228723   6.219   3.756   7.244 -0.3428 -0.0869  0.6532
  871TIP3    H128724   6.172   3.756   7.161 -1.6357  0.6123  1.3596
  871TIP3    H228725   6.231   3.663   7.265 -1.2933 -0.2757  0.3894
  872TIP3   OH228726   4.396   2.168   1.142 -0.3373 -0.6260  0.0791
  872TIP3    H128727   4.467   2.138   1.197 -0.7088 -2.1901 -0.2664
  872TIP3    H228728   4.385   2.100   1.075 -0.5284  0.7435 -1.3684
  873TIP3   OH228729   1.496   4.705   6.922 -0.1555  0.0670  0.6961
  873TIP3    H128730   1.490   4.636   6.988 -1.5386  0.8393  1.4331
  873TIP3    H228731   1.522   4.783   6.972 -0.2655  0.4501  0.1580
  874TIP3   OH228732   3.177   5.282   0.004 -0.1296  0.2226  0.3110
  874TIP3    H128733   3.123   5.331  -0.059 -1.2833 -0.1268  1.0102
  874TIP3    H228734   3.116   5.227   0.051  0.9991 -1.0378  0.3708
  875TIP3   OH228735   0.517   4.774   6.698 -0.2290  0.1245 -0.1205
  875TIP3    H128736   0.545   4.713   6.630  0.4923  0.9115 -0.5405
  875TIP3    H228737   0.567   4.853   6.682 -0.2419  0.4178  1.1760
  876TIP3   OH228738   7.536   6.314   0.097 -0.1155  0.5450  0.7641
  876TIP3    H128739   7.453   6.290   0.137 -0.5369 -1.2159 -1.0217
  876TIP3    H228740   7.513   6.351   0.012  0.8655  1.6266  0.9488
  877TIP3   OH228741   7.218   0.784   0.568 -0.3990  0.0402 -1.0263
  877TIP3    H128742   7.293   0.807   0.511 -0.1151  0.8833 -0.3377
  877TIP3    H228743   7.187   0.869   0.600 -1.2475 -0.3601 -0.7905
  878TIP3   OH228744   7.629   1.214   1.767 -0.0015  0.1234 -0.4111
  878TIP3    H128745   7.680   1.258   1.835  1.4748 -0.1238 -1.3283
  878TIP3    H228746   7.592   1.138   1.811  3.4055 -1.7539 -0.5095
  879TIP3   OH228747   3.350   3.276   1.981  0.2261 -0.2837 -0.3256
  879TIP3    H128748   3.344   3.314   1.894 -0.3015  1.0021  0.2422
  879TIP3    H228749   3.305   3.191   1.974  0.2072 -0.1996 -1.3017
  880TIP3   OH228750   5.905   4.995   0.279 -0.7117  1.0988 -0.1026
  880TIP3    H128751   5.902   4.918   0.222  0.9767 -1.6179  3.0941
  880TIP3    H228752   5.837   4.978   0.344 -1.0998  2.9680  0.0174
  881TIP3   OH228753   3.271   5.988   7.197 -0.1583  0.0075 -0.1121
  881TIP3    H128754   3.219   5.908   7.186  1.0176 -0.7273 -0.4280
  881TIP3    H228755   3.358   5.958   7.219  0.5569  1.1712 -1.1966
  882TIP3   OH228756   6.198   4.173   0.116 -0.0141 -0.0124  0.3413
  882TIP3    H128757   6.286   4.154   0.084 -0.7289 -1.8959 -0.6358
  882TIP3    H228758   6.139   4.136   0.050 -1.5850  2.3793  0.2781
  883TIP3   OH228759   2.277   5.679   7.581  0.0541  0.1978 -0.2287
  883TIP3    H128760   2.336   5.630   7.638  0.2908  2.4638  1.6276
  883TIP3    H228761   2.324   5.688   7.499  1.4097  0.1363  0.5165
  884TIP3   OH228762   6.097   6.538   6.877  0.0815  0.1351  0.1403
  884TIP3    H128763   6.109   6.521   6.783 -1.1954 -0.4654  0.0707
  884TIP3    H228764   6.068   6.629   6.880 -3.8872 -0.9529 -0.4601
  885TIP3   OH228765   5.911   2.038   0.686 -0.0666 -0.7134 -0.2793
  885TIP3    H128766   5.907   2.080   0.772 -0.0376 -0.4786 -0.3923
  885TIP3    H228767   5.832   1.984   0.682 -0.5201 -0.0513 -0.4532
  886TIP3   OH228768   0.688   7.614   7.927  1.0651  0.0110  0.2652
  886TIP3    H128769   0.689   7.592   7.834  0.0617  1.2978 -0.0713
  886TIP3    H228770   0.677   7.709   7.930  1.6918  0.0775  1.7035
  887TIP3   OH228771   2.511   1.985   7.912 -0.5517 -0.0044 -0.6302
  887TIP3    H128772   2.521   1.929   7.835 -2.2977 -1.6915  0.2561
  887TIP3    H228773   2.471   2.066   7.878  1.5600  0.5798 -1.8692
  888TIP3   OH228774   7.451   4.223   0.897 -1.2347  0.3944 -0.3861
  888TIP3    H128775   7.522   4.175   0.854 -1.8433 -0.3067 -0.6120
  888TIP3    H228776   7.468   4.315   0.875 -0.2504  0.2593 -0.2214
  889TIP3   OH228777   1.335   1.217   0.056 -0.4325 -0.0977  0.5765
  889TIP3    H128778   1.264   1.175   0.007 -0.0347  0.3397 -0.4029
  889TIP3    H228779   1.295   1.296   0.093 -0.5584 -0.0557  0.3518
  890TIP3   OH228780   8.016   1.696   0.984 -0.0432  0.1582 -0.4819
  890TIP3    H128781   8.033   1.753   0.909 -0.1944 -0.1593 -0.7577
  890TIP3    H228782   8.046   1.610   0.956 -2.4720 -0.5309 -1.1503
  891TIP3   OH228783   7.691   6.716   5.970 -0.2169  0.1216  0.0671
  891TIP3    H128784   7.684   6.660   5.892  2.8443 -1.9095  1.0837
  891TIP3    H228785   7.695   6.805   5.935 -1.2347 -0.5311 -1.9058
  892TIP3   OH228786   3.001   0.617   0.587 -0.1179  0.1173 -0.1844
  892TIP3    H128787   2.938   0.658   0.527  1.6363  2.5204 -0.5601
  892TIP3    H228788   3.083   0.664   0.571  1.0030 -0.7291  2.4795
  893TIP3   OH228789   6.036   1.058   0.358  0.4535 -0.0621 -0.2588
  893TIP3    H128790   6.093   1.091   0.428 -0.2655 -0.7616  0.6745
  893TIP3    H228791   6.096   1.036   0.287  1.6498 -2.8677  1.4768
  894TIP3   OH228792   5.278   8.095   6.023  0.5912  0.3685 -0.0749
  894TIP3    H128793   5.286   8.002   6.044  2.3180  0.4973 -0.0379
  894TIP3    H228794   5.296   8.099   5.929 -0.8195  0.5311 -0.3576
  895TIP3   OH228795   5.198   4.495   7.648 -0.1322  0.3872 -0.1898
  895TIP3    H128796   5.145   4.553   7.703  0.7726  1.8776 -0.8186
  895TIP3    H228797   5.278   4.545   7.632  0.1638 -0.5403 -1.7860
  896TIP3   OH228798   3.849   4.884   7.876  0.4215  0.3907 -0.0003
  896TIP3    H128799   3.917   4.818   7.864  1.9170  1.7586  0.5061
  896TIP3    H228800   3.893   4.967   7.856 -1.1555  1.3123  0.1908
  897TIP3   OH228801   7.287   3.272   0.786 -0.0885 -0.1281 -0.0392
  897TIP3    H128802   7.329   3.350   0.750  1.3715 -0.4949  0.7873
  897TIP3    H228803   7.209   3.305   0.832  0.9754  0.9749  1.0431
  898TIP3   OH228804   2.212   3.305   0.741 -0.1781 -0.3359 -0.0801
  898TIP3    H128805   2.173   3.365   0.679 -0.0696  1.5762  1.5970
  898TIP3    H228806   2.150   3.302   0.814  0.8250 -0.5688  0.7854
  899TIP3   OH228807   7.487   5.068   1.615  0.2767 -0.0443  0.1536
  899TIP3    H128808   7.516   5.153   1.581 -0.5447 -0.3846 -1.4765
  899TIP3    H228809   7.401   5.054   1.575  0.1881 -1.4300  0.7823
  900TIP3   OH228810   6.876   3.949   0.182  0.4240 -0.3331  0.5476
  900TIP3    H128811   6.929   3.935   0.104  0.7189  2.4171  0.1762
  900TIP3    H228812   6.789   3.972   0.149  0.3620  0.1764  1.0532
  901TIP3   OH228813   2.734   3.289   7.415  0.9119 -0.0279 -0.0232
  901TIP3    H128814   2.795   3.223   7.383 -0.6316 -0.7360 -1.6635
  901TIP3    H228815   2.678   3.242   7.478 -0.3366 -0.3993 -1.3647
  902TIP3   OH228816   4.312   1.436   0.398  0.4216  0.2347 -0.2774
  902TIP3    H128817   4.221   1.461   0.381  0.5787  2.2889  1.3839
  902TIP3    H228818   4.320   1.346   0.366 -1.9000  0.3626 -1.3679
  903TIP3   OH228819   1.369   5.538   1.131 -0.2829  0.1045 -0.3856
  903TIP3    H128820   1.434   5.578   1.189 -0.0070  0.2761 -0.8082
  903TIP3    H228821   1.285   5.568   1.165 -0.0412  2.4843 -1.7130
  904TIP3   OH228822   5.532   1.312   6.684 -0.2464 -0.3859 -0.1118
  904TIP3    H128823   5.588   1.380   6.721 -0.6424 -0.5070  0.7169
  904TIP3    H228824   5.584   1.231   6.693 -0.9466 -0.6752  1.6174
  905TIP3   OH228825   7.285   7.408   7.866 -0.1068  0.1460 -0.0926
  905TIP3    H128826   7.217   7.464   7.830  0.7949  1.7015  0.5122
  905TIP3    H228827   7.255   7.319   7.848 -2.2544  0.7712  0.0948
  906TIP3   OH228828   5.206   5.721   0.142  0.2028  0.1220 -0.5422
  906TIP3    H128829   5.211   5.803   0.191 -2.4159 -0.8710  1.6246
  906TIP3    H228830   5.267   5.662   0.188 -0.2404 -0.0239 -0.1322
  907TIP3   OH228831   5.191   0.327   1.045 -0.1401 -0.2730 -0.2048
  907TIP3    H128832   5.126   0.324   1.115  0.0810 -0.5205 -0.0043
  907TIP3    H228833   5.180   0.413   1.005 -0.1707 -0.0726  0.2308
  908TIP3   OH228834   5.479   1.328   7.142 -0.1675 -0.3937  0.0768
  908TIP3    H128835   5.455   1.420   7.140  0.2222 -0.2454 -2.7149
  908TIP3    H228836   5.575   1.329   7.137 -0.0434 -0.9841  1.7943
  909TIP3   OH228837   6.643   6.993   6.266 -0.4369  0.2315 -0.1342
  909TIP3    H128838   6.642   7.040   6.183 -0.6271 -1.2800 -1.0207
  909TIP3    H228839   6.735   6.967   6.277 -0.2948  0.9309  0.4520
  910TIP3   OH228840   6.480   5.482   1.933  0.2256 -0.4899  0.5077
  910TIP3    H128841   6.438   5.396   1.922 -0.5076 -0.1220  0.3700
  910TIP3    H228842   6.499   5.487   2.026 -0.2623 -0.5717  0.6175
  911TIP3   OH228843   3.624   6.146   7.233 -0.0932  0.0027  0.0628
  911TIP3    H128844   3.715   6.175   7.234 -0.2797  0.7456 -1.3339
  911TIP3    H228845   3.577   6.211   7.286  0.1576 -0.2915  0.6511
  912TIP3   OH228846   0.357   6.949   6.556 -0.1225 -0.2269 -0.7514
  912TIP3    H128847   0.329   6.858   6.545  2.6396 -1.0501 -1.5601
  912TIP3    H228848   0.281   7.000   6.528 -1.6181 -2.2474 -0.6170
  913TIP3   OH228849   8.033   5.351   1.383  0.7466  0.0259 -0.2975
  913TIP3    H128850   8.112   5.405   1.379  0.3859  0.5192 -1.1093
  913TIP3    H228851   8.038   5.307   1.468  2.0732 -0.2379 -0.4982
  914TIP3   OH228852   7.903   0.620   5.987  0.0084 -0.3840 -0.5592
  914TIP3    H128853   7.866   0.689   6.042  1.7106  2.1483 -2.3613
  914TIP3    H228854   7.842   0.612   5.914 -0.2485 -0.9329 -0.2944
  915TIP3   OH228855   3.884   7.879   1.449 -0.9098 -0.3463 -0.0773
  915TIP3    H128856   3.927   7.808   1.498 -0.7127 -1.2622 -1.5176
  915TIP3    H228857   3.921   7.959   1.486  1.1275 -1.0714 -0.3962
  916TIP3   OH228858   1.569   2.288   1.820 -0.0765  0.0023  0.0413
  916TIP3    H128859   1.474   2.280   1.817 -0.0770 -0.6921  1.3969
  916TIP3    H228860   1.585   2.379   1.846 -0.4013 -0.2262  1.0648
  917TIP3   OH228861   4.672   6.999   0.478 -0.0772  0.3997 -0.2733
  917TIP3    H128862   4.607   6.954   0.532  0.3657  2.1160  1.8139
  917TIP3    H228863   4.693   6.936   0.409 -3.4718 -0.4601 -0.7243
  918TIP3   OH228864   0.875   7.030   2.471 -0.0570  0.2281  0.1012
  918TIP3    H128865   0.798   6.973   2.472  0.3380 -0.2990  1.2049
  918TIP3    H228866   0.929   6.995   2.400  0.4320 -1.1478  1.1008
  919TIP3   OH228867   3.990   5.150   5.547  0.6541  0.4708  0.0495
  919TIP3    H128868   3.897   5.129   5.553  0.3184  0.3764 -3.3255
  919TIP3    H228869   4.035   5.074   5.585 -0.6681 -1.0180 -1.2379
  920TIP3   OH228870   7.046   8.112   0.075 -0.4180  0.3018 -0.5223
  920TIP3    H128871   7.078   8.155   0.155 -0.3453  0.6268 -0.7202
  920TIP3    H228872   7.124   8.072   0.037 -0.4504  0.1586 -0.4385
  921TIP3   OH228873   4.524   7.844   6.895  0.1625  0.7437 -0.1515
  921TIP3    H128874   4.498   7.774   6.835  0.4917  0.9097 -0.4966
  921TIP3    H228875   4.598   7.887   6.851  2.1742 -0.7943  1.5640
  922TIP3   OH228876   0.223   0.283   6.947 -0.5208 -0.0616  0.6627
  922TIP3    H128877   0.223   0.291   7.043  1.3725 -1.3711  0.8311
  922TIP3    H228878   0.302   0.329   6.919 -0.1611 -1.0943 -0.0890
  923TIP3   OH228879   6.733   4.048   7.187  0.1214  0.8054  0.5816
  923TIP3    H128880   6.655   4.068   7.239  0.5939  2.5042  0.6702
  923TIP3    H228881   6.745   4.124   7.131  1.7656  0.6050  0.6144
  924TIP3   OH228882   4.707   1.073   6.441 -0.0940 -0.4150 -0.3503
  924TIP3    H128883   4.772   1.091   6.373  0.2666 -0.9482 -0.1531
  924TIP3    H228884   4.758   1.070   6.522 -0.5287  0.2848 -0.0382
  925TIP3   OH228885   6.122   2.184   2.532 -0.5627 -0.2013 -0.6633
  925TIP3    H128886   6.214   2.195   2.558 -0.8371 -0.8487  0.6629
  925TIP3    H228887   6.126   2.165   2.438  0.6988 -0.7281 -0.5276
  926TIP3   OH228888   2.762   6.899   5.896 -0.6778 -0.3651 -0.6571
  926TIP3    H128889   2.812   6.946   5.829 -1.1690  1.3247  0.0837
  926TIP3    H228890   2.812   6.819   5.912  1.1917  0.7055 -0.7698
  927TIP3   OH228891   5.523   7.781   6.903 -0.0617  0.0633  0.9534
  927TIP3    H128892   5.593   7.822   6.954 -0.1082 -0.5180  1.4960
  927TIP3    H228893   5.472   7.731   6.967  0.3791 -1.3694  0.2230
  928TIP3   OH228894   7.625   7.473   1.777  0.1128 -0.0904 -0.0022
  928TIP3    H128895   7.546   7.418   1.775  0.8589 -1.2050  0.4206
  928TIP3    H228896   7.681   7.437   1.708  0.2701  0.6674 -0.2706
  929TIP3   OH228897   4.018   2.361   0.058  0.2021  0.3080  0.0570
  929TIP3    H128898   4.107   2.364   0.022 -0.0315 -3.6063 -1.3149
  929TIP3    H228899   4.030   2.334   0.149  0.5698 -4.4679 -1.1452
  930TIP3   OH228900   0.097   3.996   7.747 -0.0642 -0.7329  0.0689
  930TIP3    H128901   0.015   3.993   7.796 -0.6544 -1.6505 -0.9241
  930TIP3    H228902   0.105   4.086   7.717 -2.2108 -1.1869 -2.2011
  931TIP3   OH228903   2.749   2.190   6.594  0.0707 -0.0094  0.2604
  931TIP3    H128904   2.661   2.155   6.582 -0.0199  0.1673  0.3994
  931TIP3    H228905   2.796   2.166   6.514 -0.0313 -0.3195  0.2930
  932TIP3   OH228906   7.242   5.074   1.520 -0.6900  0.0554 -0.6561
  932TIP3    H128907   7.177   5.111   1.579 -0.7479 -0.9606 -0.0543
  932TIP3    H228908   7.228   5.119   1.436 -2.0055  0.0118 -0.4685
  933TIP3   OH228909   6.536   4.104   6.864 -0.0424 -0.3919  0.6071
  933TIP3    H128910   6.484   4.070   6.936 -0.2903 -0.4310  0.4107
  933TIP3    H228911   6.618   4.133   6.905 -0.7357  0.8895  1.1200
  934TIP3   OH228912   6.977   1.981   6.075 -0.0666 -0.1682 -0.1027
  934TIP3    H128913   7.022   2.050   6.126 -0.3668 -1.5021  2.1170
  934TIP3    H228914   7.040   1.957   6.007  1.0233  0.6440  0.5743
  935TIP3   OH228915   0.387   7.713   6.001  0.5677 -0.5033 -0.6342
  935TIP3    H128916   0.380   7.794   5.951 -0.3703 -1.4858 -2.1790
  935TIP3    H228917   0.410   7.646   5.937 -0.3119 -1.7485  0.2835
  936TIP3   OH228918   0.786   6.796   7.213 -0.1446 -0.5539  0.4535
  936TIP3    H128919   0.788   6.771   7.305  1.0202  1.8459  1.1763
  936TIP3    H228920   0.877   6.817   7.192 -0.7637  1.5220 -0.4103
  937TIP3   OH228921   6.904   5.875   7.288 -0.4142  0.2347  0.0668
  937TIP3    H128922   6.966   5.837   7.225  1.3324 -0.7729  2.2667
  937TIP3    H228923   6.818   5.861   7.248  0.2263 -4.4372 -0.2295
  938TIP3   OH228924   3.331   6.306   2.176  0.0739 -0.2715  0.2743
  938TIP3    H128925   3.392   6.379   2.186  1.7195 -1.4800 -0.4616
  938TIP3    H228926   3.258   6.342   2.125  0.3401  1.1144  0.8404
  939TIP3   OH228927   4.350   4.066   1.521 -0.9821  0.0812 -0.0804
  939TIP3    H128928   4.402   4.125   1.575 -0.5570 -1.6139  1.4901
  939TIP3    H228929   4.317   4.001   1.583 -0.3515 -2.0493 -1.8552
  940TIP3   OH228930   6.831   7.651   0.468 -0.3644  0.4628 -0.1192
  940TIP3    H128931   6.816   7.740   0.501 -2.8081  0.1294 -0.1285
  940TIP3    H228932   6.839   7.597   0.547 -0.7586  0.4306 -0.1008
  941TIP3   OH228933   3.688   7.281   6.567 -0.3276  0.1229 -0.3308
  941TIP3    H128934   3.636   7.273   6.488 -0.8007 -0.8772  0.0661
  941TIP3    H228935   3.772   7.240   6.545 -0.6067 -0.5327 -0.1911
  942TIP3   OH228936   1.598   1.670   0.980  0.0063  0.2818 -0.4490
  942TIP3    H128937   1.523   1.651   0.924  0.2861  0.0028 -0.7276
  942TIP3    H228938   1.603   1.766   0.981 -1.8821  0.4343  1.5852
  943TIP3   OH228939   7.143   0.987   0.744 -0.7240 -0.4032 -0.3379
  943TIP3    H128940   7.231   0.994   0.782 -0.5493 -1.0022 -0.6210
  943TIP3    H228941   7.140   1.057   0.679 -0.5994 -0.1271 -0.0492
  944TIP3   OH228942   3.392   5.037   0.297 -0.0794 -0.4335 -0.2758
  944TIP3    H128943   3.422   5.110   0.352  0.1407 -0.8100  0.1106
  944TIP3    H228944   3.386   5.074   0.209  0.1567  0.0182 -0.1060
  945TIP3   OH228945   7.546   4.041   6.291 -0.5283 -0.5640 -0.1716
  945TIP3    H128946   7.597   3.961   6.305 -1.6975 -1.1607  0.8986
  945TIP3    H228947   7.523   4.070   6.379 -0.1873  0.9316 -0.5530
  946TIP3   OH228948   3.518   4.844   0.922 -0.3187 -0.1893 -0.5044
  946TIP3    H128949   3.586   4.806   0.866  0.9807 -0.0074  0.9057
  946TIP3    H228950   3.496   4.775   0.984  1.2930  0.8806  1.3927
  947TIP3   OH228951   3.007   8.043   7.506  0.5147  0.3069  0.1737
  947TIP3    H128952   2.945   7.987   7.459 -0.0479  1.6131 -0.7017
  947TIP3    H228953   2.951   8.097   7.562  1.1712 -1.3268  2.5675
  948TIP3   OH228954   4.909   1.207   7.527  0.3047 -0.5165  0.3435
  948TIP3    H128955   4.992   1.193   7.483  0.1717 -0.2050 -0.0114
  948TIP3    H228956   4.881   1.120   7.556  0.6228 -0.6538  0.2319
  949TIP3   OH228957   1.351   0.834   1.347 -0.7118  0.0496  0.1331
  949TIP3    H128958   1.316   0.918   1.376 -0.3569  0.2883 -0.1034
  949TIP3    H228959   1.275   0.782   1.322 -0.9416  0.2484  0.4267
  950TIP3   OH228960   0.613   3.983   7.476  0.0893 -0.3749 -0.0330
  950TIP3    H128961   0.612   4.010   7.384 -0.7033  0.1046  0.1047
  950TIP3    H228962   0.603   4.065   7.525  0.5551 -0.6203  0.4868
  951TIP3   OH228963   1.726   4.490   1.440 -0.1641  0.0966  0.4543
  951TIP3    H128964   1.770   4.493   1.525 -0.1763  0.6966  0.4398
  951TIP3    H228965   1.796   4.509   1.377  0.4345 -2.7454  0.0858
  952TIP3   OH228966   6.693   2.256   1.710  0.4617 -0.6360 -0.2045
  952TIP3    H128967   6.702   2.301   1.626 -2.8600  1.4475  0.3799
  952TIP3    H228968   6.750   2.305   1.770  0.4245 -0.1361 -0.5743
  953TIP3   OH228969   5.311   5.076   0.835 -0.5624  0.2532  0.2433
  953TIP3    H128970   5.338   5.108   0.921 -1.7384  1.8583  0.0748
  953TIP3    H228971   5.233   5.023   0.852  0.6846 -1.5968  0.3948
  954TIP3   OH228972   0.971   5.543   1.513 -0.2321 -0.4192 -0.2219
  954TIP3    H128973   0.935   5.460   1.547  1.3233 -0.8413  0.5191
  954TIP3    H228974   1.064   5.538   1.535 -0.3167  2.0908  0.9804
  955TIP3   OH228975   3.055   6.110   1.387  0.5651  0.6746  0.5712
  955TIP3    H128976   3.022   6.026   1.421  0.2863  0.7441  0.4764
  955TIP3    H228977   3.030   6.174   1.453  2.4857  0.4192  1.6071
  956TIP3   OH228978   2.776   1.200   0.037 -0.1504  0.3666 -0.2896
  956TIP3    H128979   2.705   1.136   0.048  1.3088 -1.1434  0.7655
  956TIP3    H228980   2.835   1.183   0.110  1.3974  1.4944 -1.2265
  957TIP3   OH228981   0.154   1.312   7.720  0.0256  0.4215  0.5016
  957TIP3    H128982   0.238   1.355   7.736  0.3564 -0.8109  2.4035
  957TIP3    H228983   0.169   1.259   7.642  1.2732 -0.2894  1.1815
  958TIP3   OH228984   6.780   1.000   6.668  0.0165 -0.0845 -0.2084
  958TIP3    H128985   6.733   1.083   6.683 -0.0022 -0.0621 -0.3852
  958TIP3    H228986   6.735   0.937   6.724 -0.1691 -0.0425 -0.3080
  959TIP3   OH228987   5.485   4.266   6.671 -0.0395 -0.4532  0.1301
  959TIP3    H128988   5.564   4.255   6.723  0.4615 -2.6136 -0.9688
  959TIP3    H228989   5.479   4.360   6.656  1.6206 -0.1174  1.2933
  960TIP3   OH228990   4.575   7.645   6.705  0.1505  0.3662 -0.4048
  960TIP3    H128991   4.574   7.549   6.694 -0.0852  0.4230 -0.8778
  960TIP3    H228992   4.543   7.679   6.622  0.1210  0.8577 -0.1921
  961TIP3   OH228993   6.135   3.623   1.759  0.6566  0.2223 -0.4213
  961TIP3    H128994   6.094   3.697   1.804 -1.1771 -0.8768 -0.2117
  961TIP3    H228995   6.229   3.635   1.775  0.3077  1.7944  0.6758
  962TIP3   OH228996   0.011   4.576   6.408  0.6409 -0.4529 -0.6476
  962TIP3    H128997  -0.056   4.543   6.349 -0.7416  1.0212  0.0379
  962TIP3    H228998   0.027   4.503   6.468 -2.8309  0.1154  1.2474
  963TIP3   OH228999   6.893   1.314   5.514 -0.3275  0.2565 -0.2687
  963TIP3    H129000   6.803   1.321   5.547 -0.8036 -2.3735 -0.8073
  963TIP3    H229001   6.936   1.254   5.574  1.3294  1.9295  0.3198
  964TIP3   OH229002   4.773   7.808   1.913 -0.1030 -0.3841 -0.4420
  964TIP3    H129003   4.839   7.804   1.844  0.7644 -0.9045  0.4053
  964TIP3    H229004   4.804   7.747   1.980 -0.8719  0.1927  0.4616
  965TIP3   OH229005   1.225   6.782   6.212  0.5438 -0.3934 -0.3456
  965TIP3    H129006   1.286   6.719   6.175 -0.9051 -0.4569 -2.8589
  965TIP3    H229007   1.241   6.863   6.163 -2.1009 -0.7375 -1.9278
  966TIP3   OH229008   6.704   4.485   0.603  0.2066  0.2220  0.0902
  966TIP3    H129009   6.765   4.544   0.558 -0.6845 -1.0658 -3.0063
  966TIP3    H229010   6.761   4.421   0.646  1.1224 -0.5620 -2.1770
  967TIP3   OH229011   1.784   6.856   7.895 -0.2713  0.5147  0.0322
  967TIP3    H129012   1.837   6.783   7.863  1.6727  1.2470  1.4135
  967TIP3    H229013   1.745   6.893   7.816 -1.3100 -1.9594 -0.7160
  968TIP3   OH229014   4.587   3.640   1.038  0.5281 -0.4457 -0.4184
  968TIP3    H129015   4.572   3.548   1.057  0.6118 -1.0474 -2.8396
  968TIP3    H229016   4.673   3.642   0.996 -0.3009  0.3858 -2.1964
  969TIP3   OH229017   2.947   4.324   0.192  0.0880 -0.1025  0.2007
  969TIP3    H129018   2.914   4.260   0.128 -0.1886 -0.7549  0.9807
  969TIP3    H229019   2.938   4.409   0.148  0.0895 -0.5579 -0.6972
  970TIP3   OH229020   1.297   1.059   1.480 -0.0711 -0.5575  0.4587
  970TIP3    H129021   1.350   1.103   1.546  1.8902 -1.3623 -0.5035
  970TIP3    H229022   1.265   1.131   1.425  1.6736 -0.1264 -0.0767
  971TIP3   OH229023   7.268   6.492   1.918 -0.3147 -0.8951 -0.0385
  971TIP3    H129024   7.180   6.489   1.956 -0.9782 -1.7121 -1.5447
  971TIP3    H229025   7.323   6.445   1.981 -0.7118  0.5175  1.4275
  972TIP3   OH229026   4.911   4.338   7.620  0.0334 -0.0905 -0.1527
  972TIP3    H129027   4.978   4.401   7.647  1.3125 -1.5671  0.2775
  972TIP3    H229028   4.860   4.322   7.700 -0.8681  1.0047 -0.4712
  973TIP3   OH229029   3.945   0.592   6.255 -0.1430  0.6155  0.2454
  973TIP3    H129030   3.986   0.636   6.329  1.0208  0.8763 -0.5286
  973TIP3    H229031   4.017   0.571   6.196 -0.9142 -0.5704 -0.3155
  974TIP3   OH229032   7.038   3.839   6.898 -0.1378 -0.3022 -0.1197
  974TIP3    H129033   6.948   3.811   6.881 -1.0095  1.2347  1.6907
  974TIP3    H229034   7.066   3.880   6.816 -0.6262 -1.7910 -1.0892
  975TIP3   OH229035   1.550   1.014   5.988 -0.0404 -0.3583 -0.3459
  975TIP3    H129036   1.529   1.076   6.058 -0.8151 -1.5423  0.5157
  975TIP3    H229037   1.566   1.069   5.911  0.3959  0.9511  0.6393
  976TIP3   OH229038   8.046   2.330   7.812  0.2115  0.2893 -0.2368
  976TIP3    H129039   8.099   2.385   7.869  1.4433 -0.8617 -0.2338
  976TIP3    H229040   7.970   2.307   7.866  0.9648 -0.1314  0.6891
  977TIP3   OH229041   0.366   5.741   7.149  0.7234 -0.2067 -0.5279
  977TIP3    H129042   0.305   5.714   7.218  1.3718 -1.7996 -0.5360
  977TIP3    H229043   0.314   5.740   7.069  0.4037 -0.0932 -0.3233
  978TIP3   OH229044   4.361   5.711   7.210  0.8253  0.0488  0.1823
  978TIP3    H129045   4.332   5.625   7.240 -2.1263  1.1534  0.8724
  978TIP3    H229046   4.379   5.760   7.290  0.6352  0.6125 -0.1098
  979TIP3   OH229047   4.163   3.352   7.580 -0.3720 -0.3445 -0.4703
  979TIP3    H129048   4.084   3.340   7.633  1.1554 -2.1195  1.5739
  979TIP3    H229049   4.215   3.416   7.627 -0.0449 -0.0967 -1.1508
  980TIP3   OH229050   0.586   1.857   1.294 -0.4017  0.0743  0.4141
  980TIP3    H129051   0.665   1.903   1.269 -0.9099  0.4108 -0.5973
  980TIP3    H229052   0.617   1.772   1.327  0.5356  1.0648  2.2703
  981TIP3   OH229053   5.915   5.523   0.691  0.3794 -0.0849 -0.3665
  981TIP3    H129054   5.874   5.527   0.777 -0.0673  1.0758 -0.6071
  981TIP3    H229055   5.988   5.585   0.696 -0.6918  1.3150 -1.3139
  982TIP3   OH229056   3.254   7.228   7.008  0.0332  0.2118  0.0609
  982TIP3    H129057   3.327   7.169   7.026 -0.1813 -0.2924 -0.7052
  982TIP3    H229058   3.290   7.315   7.025  0.3950 -0.1082  1.0547
  983TIP3   OH229059   4.396   4.464   0.807 -0.5861  0.3060 -0.1247
  983TIP3    H129060   4.411   4.386   0.754  0.1837 -0.6034  1.3508
  983TIP3    H229061   4.390   4.536   0.743  1.5966 -0.5269 -1.3935
  984TIP3   OH229062   1.214   1.483   6.636 -0.4247  0.4768  0.1814
  984TIP3    H129063   1.207   1.477   6.731 -0.1974 -2.3155  0.0912
  984TIP3    H229064   1.125   1.473   6.604 -0.2480 -0.9727  0.0722
  985TIP3   OH229065   7.694   1.678   6.782  0.7283 -0.5389 -0.1971
  985TIP3    H129066   7.679   1.766   6.815 -0.6310 -0.9383  0.3362
  985TIP3    H229067   7.655   1.620   6.848  2.7250 -1.6221  0.1021
  986TIP3   OH229068   5.780   3.773   6.815  0.1493  0.0351 -0.4818
  986TIP3    H129069   5.737   3.688   6.808 -0.9157  0.4864  0.1536
  986TIP3    H229070   5.785   3.806   6.726  0.6921 -0.7418 -0.7464
  987TIP3   OH229071   2.570   3.579   0.189  0.0667 -0.2462 -0.0181
  987TIP3    H129072   2.652   3.584   0.140  0.7311 -2.9299  0.6641
  987TIP3    H229073   2.578   3.646   0.256  1.7812 -0.5461  0.1154
  988TIP3   OH229074   5.601   7.333   5.803  0.0164 -0.1759 -0.5154
  988TIP3    H129075   5.545   7.265   5.842  0.8489 -2.0297 -2.3335
  988TIP3    H229076   5.540   7.401   5.775 -0.7951  0.1645  1.8569
  989TIP3   OH229077   6.368   0.127   7.887 -0.0738  0.1134  0.0890
  989TIP3    H129078   6.402   0.189   7.951  2.0762  0.6531 -1.4724
  989TIP3    H229079   6.401   0.042   7.917 -1.5738 -0.0961  1.2709
  990TIP3   OH229080   1.002   2.861   1.173  0.4002 -0.7662 -0.0346
  990TIP3    H129081   0.999   2.812   1.091  1.3102  2.5360 -2.2610
  990TIP3    H229082   1.073   2.924   1.161  0.1545  0.3032  3.0911
  991TIP3   OH229083   1.213   5.726   0.238 -0.5599 -0.1197 -0.1520
  991TIP3    H129084   1.245   5.640   0.263 -0.5234  0.5038  2.1489
  991TIP3    H229085   1.166   5.711   0.156  2.1020 -1.7394 -1.5048
  992TIP3   OH229086   6.946   3.145   6.420 -0.0412  1.1887 -0.1155
  992TIP3    H129087   6.904   3.188   6.494  0.0390  1.9428 -0.5039
  992TIP3    H229088   6.996   3.073   6.459 -1.0470  0.7706  0.4212
  993TIP3   OH229089   5.064   0.971   0.472 -0.7209  0.1396 -0.4068
  993TIP3    H129090   5.133   0.946   0.410  1.4949 -1.0934  2.3345
  993TIP3    H229091   4.992   0.912   0.452 -0.0988 -0.1719 -1.8653
  994TIP3   OH229092   6.062   2.861   7.684  0.0464 -0.0779 -0.4289
  994TIP3    H129093   5.969   2.883   7.679 -0.3033 -1.5047 -0.4948
  994TIP3    H229094   6.064   2.769   7.712  1.4580  0.2234  0.6071
  995TIP3   OH229095   1.916   7.447   7.591 -0.9441 -0.2372  0.0676
  995TIP3    H129096   1.842   7.421   7.646 -0.6187  1.7286  1.5422
  995TIP3    H229097   1.920   7.542   7.599  1.3834 -0.2314 -0.4060
  996TIP3   OH229098   7.339   7.499   7.548 -0.0669 -0.0110  1.5201
  996TIP3    H129099   7.389   7.418   7.562 -0.9506 -1.4387 -2.2549
  996TIP3    H229100   7.254   7.481   7.590 -0.0129 -0.7703  1.3285
  997TIP3   OH229101   3.521   0.095   6.517 -0.3246  1.0161  0.5605
  997TIP3    H129102   3.528   0.088   6.612 -0.1403  2.1720  0.6516
  997TIP3    H229103   3.605   0.063   6.484  0.4811  2.6466  0.9295
  998TIP3   OH229104   1.014   0.186   6.553 -0.5395  0.0654 -0.0825
  998TIP3    H129105   1.004   0.112   6.613  0.0577  0.4642  0.5182
  998TIP3    H229106   0.963   0.257   6.592 -2.0254 -0.3265 -1.2175
  999TIP3   OH229107   7.582   5.309   1.567  0.3123 -0.3274 -0.2241
  999TIP3    H129108   7.573   5.394   1.609 -1.7981 -0.8802  0.5311
  999TIP3    H229109   7.610   5.330   1.477  2.9649  0.9430  0.7985
 1000TIP3   OH229110   4.113   1.945   6.527  0.0819 -0.7233 -0.3971
 1000TIP3    H129111   4.180   1.906   6.471 -0.1313  0.1028 -1.2513
 1000TIP3    H229112   4.058   1.995   6.467 -0.0085  0.3797  0.5882
 1001TIP3   OH229113   6.671   2.390   0.280  0.7198 -0.8958 -0.3368
 1001TIP3    H129114   6.613   2.366   0.207 -2.8447  0.9579  1.6108
 1001TIP3    H229115   6.692   2.482   0.265 -2.0123  0.2497  1.9305
 1002TIP3   OH229116   0.789   0.954   7.104  0.4961  0.0780 -0.0285
 1002TIP3    H129117   0.821   0.973   7.016 -1.7397  1.7609 -0.5663
 1002TIP3    H229118   0.838   0.876   7.131  3.0658  0.9826 -1.6998
 1003TIP3   OH229119   0.474   1.974   5.917 -0.1486  0.3806 -0.2747
 1003TIP3    H129120   0.392   1.953   5.961 -0.4098 -0.9769 -1.3352
 1003TIP3    H229121   0.452   1.974   5.824  1.3442 -1.7836 -0.7271
 1004TIP3   OH229122   1.909   5.808   2.198 -0.5063 -0.5197 -0.2771
 1004TIP3    H129123   1.895   5.789   2.291 -0.5864 -0.1291 -0.2078
 1004TIP3    H229124   1.868   5.735   2.152  1.1320 -1.6728  0.0304
 1005TIP3   OH229125   7.113   2.771   7.087 -0.2414 -0.2185 -0.1265
 1005TIP3    H129126   7.058   2.709   7.135  0.5559 -0.2883  0.7128
 1005TIP3    H229127   7.177   2.715   7.043 -0.0755 -0.0467 -0.0984
 1006TIP3   OH229128   2.692   5.887   7.653 -0.1320 -0.1257 -0.2986
 1006TIP3    H129129   2.686   5.824   7.724  1.5266  0.4480  0.3961
 1006TIP3    H229130   2.779   5.874   7.617 -0.5809  0.2853 -1.5937
 1007TIP3   OH229131   3.056   1.435   6.134 -0.0977  0.1693 -0.0685
 1007TIP3    H129132   2.974   1.443   6.086 -1.6559  1.6903  2.6026
 1007TIP3    H229133   3.120   1.480   6.079 -0.9995 -0.9047 -2.1384
 1008TIP3   OH229134   0.459   0.397   7.599  0.3078 -0.3679  0.5266
 1008TIP3    H129135   0.451   0.331   7.530  0.3865  0.0830  0.0740
 1008TIP3    H229136   0.368   0.418   7.623  0.1223  1.5575 -1.4979
 1009TIP3   OH229137   3.124   0.660   1.188 -0.6259 -0.1488 -0.2680
 1009TIP3    H129138   3.146   0.723   1.257  1.0683 -1.6339  0.6531
 1009TIP3    H229139   3.064   0.598   1.230 -0.2219 -0.6074 -0.3607
 1010TIP3   OH229140   4.333   5.947   1.313 -0.0489 -0.2049  0.1495
 1010TIP3    H129141   4.366   6.002   1.384 -1.2581  0.2041  0.4054
 1010TIP3    H229142   4.412   5.919   1.266  0.8922 -1.3517  2.2520
 1011TIP3   OH229143   0.611   6.327   6.983  0.0380 -0.8395  0.0484
 1011TIP3    H129144   0.550   6.341   7.055  0.4749  1.2808  0.0680
 1011TIP3    H229145   0.692   6.369   7.011  0.2031  0.1121 -1.6942
 1012TIP3   OH229146   4.064   0.558   5.886  0.0683 -0.0466 -0.4396
 1012TIP3    H129147   3.985   0.506   5.873  0.4284 -1.0801  1.1374
 1012TIP3    H229148   4.096   0.577   5.798 -1.7188  0.0890 -1.0876
 1013TIP3   OH229149   7.399   6.230   6.835 -0.0516  0.1948 -0.2921
 1013TIP3    H129150   7.319   6.197   6.876 -1.0721  0.5723 -1.8805
 1013TIP3    H229151   7.375   6.316   6.802  1.7678  1.4390  1.3494
 1014TIP3   OH229152   5.298   6.211   6.549  0.4995 -0.3459  0.0858
 1014TIP3    H129153   5.383   6.172   6.571  0.3526 -1.5414 -1.3577
 1014TIP3    H229154   5.234   6.153   6.589  0.3246 -0.2110  0.0004
 1015TIP3   OH229155   6.703   7.515   2.227  0.0947 -0.3327 -0.0350
 1015TIP3    H129156   6.673   7.491   2.315  0.9385 -1.5841 -0.0674
 1015TIP3    H229157   6.756   7.593   2.239 -2.1705  1.2838  0.1656
 1016TIP3   OH229158   5.265   3.056   0.476 -0.6867  0.2837 -0.2897
 1016TIP3    H129159   5.189   3.096   0.433 -0.5697  0.1617 -0.6123
 1016TIP3    H229160   5.293   3.122   0.540 -2.4399 -0.5659  1.4528
 1017TIP3   OH229161   2.146   2.650   5.619  0.3749  0.5107 -0.3298
 1017TIP3    H129162   2.068   2.695   5.584  0.7378  0.3851 -1.3389
 1017TIP3    H229163   2.119   2.621   5.706 -0.6041  0.7518 -0.5317
 1018TIP3   OH229164   2.322   7.700   0.075  0.7813 -0.2432 -0.3526
 1018TIP3    H129165   2.241   7.751   0.070  2.9851  3.6425 -0.3472
 1018TIP3    H229166   2.352   7.711   0.165  1.4577 -1.4813 -0.4068
 1019TIP3   OH229167   5.788   3.067   1.343  0.5746 -0.1304  0.0635
 1019TIP3    H129168   5.765   3.157   1.366 -1.1671 -0.7076  0.7525
 1019TIP3    H229169   5.709   3.032   1.302  1.5199 -1.0918 -1.0166
 1020TIP3   OH229170   0.494   0.573   6.277 -0.4444  0.2276 -0.0532
 1020TIP3    H129171   0.554   0.577   6.351  0.2270  0.9965 -0.6205
 1020TIP3    H229172   0.464   0.482   6.275  1.6073 -0.4931 -0.4464
 1021TIP3   OH229173   7.409   6.766   1.290 -0.0033  0.2320  0.4812
 1021TIP3    H129174   7.503   6.774   1.306 -0.1222 -0.2025  1.4682
 1021TIP3    H229175   7.382   6.689   1.340 -0.9696  0.6214  0.5951
 1022TIP3   OH229176   1.584   2.136   6.265 -0.0163 -0.5249  0.1736
 1022TIP3    H129177   1.493   2.117   6.288 -0.2809 -0.8629 -1.0410
 1022TIP3    H229178   1.588   2.120   6.171  0.4646  2.7368 -0.4931
 1023TIP3   OH229179   5.507   0.410   6.594 -0.1629  0.0595  0.3125
 1023TIP3    H129180   5.472   0.498   6.581 -0.2076  0.0215  0.1681
 1023TIP3    H229181   5.523   0.377   6.506 -1.5332 -0.6246  0.2931
 1024TIP3   OH229182   5.476   2.114   1.099  0.2915 -0.1828 -0.5091
 1024TIP3    H129183   5.429   2.067   1.030 -0.1317 -1.7815  0.8225
 1024TIP3    H229184   5.408   2.152   1.153  0.6269  1.7904 -1.3817
 1025TIP3   OH229185   0.579   1.529   0.438 -0.7334 -0.4169  0.3951
 1025TIP3    H129186   0.620   1.558   0.357  2.2898 -2.2921  1.1187
 1025TIP3    H229187   0.610   1.591   0.504 -1.6540 -0.0159  0.4712
 1026TIP3   OH229188   3.269   3.599   0.896 -0.5615  0.2550 -0.0508
 1026TIP3    H129189   3.280   3.562   0.809 -1.4830  1.1892 -0.5844
 1026TIP3    H229190   3.359   3.609   0.929 -0.1765  0.3449 -1.0885
 1027TIP3   OH229191   6.529   3.272   7.814 -0.0048  0.6902  0.3626
 1027TIP3    H129192   6.573   3.350   7.850  2.1583 -0.3042  0.0352
 1027TIP3    H229193   6.491   3.230   7.891  1.6278  0.3941  1.0585
 1028TIP3   OH229194   4.621   0.784   5.901 -0.3938 -0.1326 -0.0281
 1028TIP3    H129195   4.585   0.703   5.938  1.9178 -0.0965  2.5630
 1028TIP3    H229196   4.637   0.762   5.809 -2.0853 -1.7793 -0.0054
 1029TIP3   OH229197   2.559   7.134   0.328  0.2169  0.1048 -0.4555
 1029TIP3    H129198   2.589   7.155   0.239  1.2805  1.5281  0.2131
 1029TIP3    H229199   2.627   7.169   0.385 -1.0556  0.3057  0.9801
 1030TIP3   OH229200   6.750   1.475   1.654 -0.4000 -1.0685 -0.0439
 1030TIP3    H129201   6.764   1.564   1.624 -1.2020 -0.4423  1.3177
 1030TIP3    H229202   6.781   1.475   1.745 -0.8452 -2.0397  0.1271
 1031TIP3   OH229203   1.026   2.770   6.784 -0.2175  0.1938  0.0225
 1031TIP3    H129204   1.009   2.767   6.690 -1.4208 -0.3057  0.2434
 1031TIP3    H229205   1.056   2.682   6.806  2.9210  1.0433 -0.3582
 1032TIP3   OH229206   5.802   4.031   1.576  0.4090 -0.1290  0.1081
 1032TIP3    H129207   5.818   4.082   1.655  1.6220 -0.3099 -0.0024
 1032TIP3    H229208   5.867   4.061   1.513  0.0903 -0.6767 -0.5048
 1033TIP3   OH229209   1.278   1.352   7.038 -0.1493 -0.0653  0.0620
 1033TIP3    H129210   1.272   1.399   7.121  0.8672 -1.4929  0.9869
 1033TIP3    H229211   1.331   1.409   6.983 -0.9981  0.9902  0.2866
 1034TIP3   OH229212   6.192   2.226   7.455  0.1264  0.1044  0.2835
 1034TIP3    H129213   6.175   2.139   7.490  2.7774 -0.9887 -0.9059
 1034TIP3    H229214   6.161   2.221   7.364 -1.1104  0.9511  0.6303
 1035TIP3   OH229215   5.694   2.657   0.629  0.0332  0.2165 -0.0326
 1035TIP3    H129216   5.744   2.586   0.588 -0.3485  0.4154 -0.8678
 1035TIP3    H229217   5.752   2.690   0.698  1.1875  0.6378 -1.1612
 1036TIP3   OH229218   7.111   2.934   1.041  0.0080 -0.0187  0.3704
 1036TIP3    H129219   7.135   2.980   0.960  2.0441 -0.3774  0.7190
 1036TIP3    H229220   7.151   2.847   1.031 -0.0266 -0.1822  1.5944
 1037TIP3   OH229221   1.010   4.080   1.340 -0.3469 -0.8407 -0.0323
 1037TIP3    H129222   0.986   3.990   1.361 -1.9738 -0.5683 -0.6051
 1037TIP3    H229223   0.984   4.092   1.249 -1.4638  0.6117  0.4398
 1038TIP3   OH229224   0.124   4.928   6.018  0.0971  0.0505 -0.0186
 1038TIP3    H129225   0.203   4.874   6.013 -0.6758 -1.0507 -0.6164
 1038TIP3    H229226   0.062   4.875   6.069  0.2818  1.6280  1.9816
 1039TIP3   OH229227   6.035   1.201   6.277 -0.1011 -0.3177  0.3900
 1039TIP3    H129228   5.995   1.116   6.297  2.5578 -1.8205 -0.1585
 1039TIP3    H229229   6.014   1.216   6.185  2.7016 -2.5453 -0.7919
 1040TIP3   OH229230   2.921   3.104   6.087  0.5231 -0.6011 -0.2875
 1040TIP3    H129231   2.943   3.159   6.012 -0.5083  0.2390  0.0005
 1040TIP3    H229232   3.004   3.062   6.110  1.4158  0.9839 -0.4014
 1041TIP3   OH229233   0.976   5.076   1.191 -0.4376 -0.1915  0.1937
 1041TIP3    H129234   1.057   5.116   1.222 -0.2983 -0.5503  0.2938
 1041TIP3    H229235   1.000   5.032   1.109 -0.9332  1.2859 -0.7921
 1042TIP3   OH229236   4.596   5.914   0.501  0.0001 -0.0333  0.4307
 1042TIP3    H129237   4.678   5.950   0.532 -0.1116  0.9654 -0.3925
 1042TIP3    H229238   4.557   5.872   0.578  0.4984  0.9256  1.2149
 1043TIP3   OH229239   2.422   6.009   6.944 -0.1477  0.2760 -0.1252
 1043TIP3    H129240   2.336   5.967   6.951 -0.6556  1.2430 -0.4287
 1043TIP3    H229241   2.476   5.947   6.895 -0.5572 -0.5061  0.3977
 1044TIP3   OH229242   6.631   2.585   7.342 -0.2104 -0.3504 -0.5354
 1044TIP3    H129243   6.628   2.626   7.256 -0.5785  0.5335 -0.1199
 1044TIP3    H229244   6.548   2.537   7.349 -1.0324  1.0919  0.0258
 1045TIP3   OH229245   1.470   4.577   7.167  0.4476 -0.2177  0.6557
 1045TIP3    H129246   1.513   4.565   7.252 -1.0194  2.4288  1.9126
 1045TIP3    H229247   1.397   4.636   7.186  0.2360  0.7027 -2.5018
 1046TIP3   OH229248   7.261   2.846   6.372  0.5221 -0.1175  0.8727
 1046TIP3    H129249   7.283   2.813   6.285 -0.1577 -1.4032  1.1563
 1046TIP3    H229250   7.344   2.849   6.418  0.8763  0.4849  0.2135
 1047TIP3   OH229251   6.898   6.662   7.118 -0.1412  0.2458 -0.2979
 1047TIP3    H129252   6.868   6.595   7.179  1.4177 -0.4215 -0.1990
 1047TIP3    H229253   6.860   6.744   7.151 -3.6143 -0.7560 -1.4747
 1048TIP3   OH229254   2.927   1.356   1.758 -0.6175  0.2065 -0.3779
 1048TIP3    H129255   2.892   1.319   1.677 -2.8401  2.0123 -0.3215
 1048TIP3    H229256   2.920   1.451   1.747  0.6971  0.5443  1.2510
 1049TIP3   OH229257   4.188   3.298   1.844  0.0172 -0.0314 -0.8461
 1049TIP3    H129258   4.171   3.384   1.807  1.4957  1.3578  1.3850
 1049TIP3    H229259   4.107   3.273   1.887  0.3672  1.6837  0.9591
 1050TIP3   OH229260   3.561   6.430   1.872 -0.5264 -0.2575 -0.3633
 1050TIP3    H129261   3.496   6.445   1.940  1.1722  0.8340  1.1066
 1050TIP3    H229262   3.592   6.518   1.848  1.5878 -0.7815  0.2194
 1051TIP3   OH229263   0.020   7.523   7.312  0.5482  0.3156  0.1352
 1051TIP3    H129264  -0.029   7.444   7.335  1.8763 -1.2279 -1.9492
 1051TIP3    H229265  -0.040   7.595   7.332 -2.0338 -1.3665 -0.8851
 1052TIP3   OH229266   6.297   4.789   0.326 -0.2270  0.0340  0.4011
 1052TIP3    H129267   6.317   4.877   0.293 -1.0373 -0.3170 -1.1220
 1052TIP3    H229268   6.381   4.756   0.359 -0.0441  1.6256  1.7010
 1053TIP3   OH229269   5.145   5.791   1.270 -0.3181  0.6453  0.3097
 1053TIP3    H129270   5.203   5.745   1.331 -1.5745  0.0851  1.1252
 1053TIP3    H229271   5.200   5.810   1.195  0.2904 -2.2269 -0.1061
 1054TIP3   OH229272   2.998   2.544   1.178 -0.1313 -0.9689 -0.2700
 1054TIP3    H129273   3.054   2.505   1.111  0.5437 -2.3635  1.0595
 1054TIP3    H229274   3.058   2.573   1.246 -0.8368  0.0924 -0.0748
 1055TIP3   OH229275   0.971   4.230   0.443 -0.4364 -0.4744 -0.4085
 1055TIP3    H129276   1.027   4.303   0.470 -1.7917  0.6605 -0.5237
 1055TIP3    H229277   0.951   4.247   0.351 -0.3469 -1.2884 -0.5900
 1056TIP3   OH229278   1.511   3.015   6.899  0.4573  0.1296 -0.6935
 1056TIP3    H129279   1.564   3.091   6.875 -1.0041  2.5573  2.8738
 1056TIP3    H229280   1.575   2.945   6.913  2.2053  1.5601 -1.1376
 1057TIP3   OH229281   0.528   0.666   7.665  0.1276 -0.3596  0.5308
 1057TIP3    H129282   0.549   0.574   7.650 -0.2358 -0.1922 -1.2410
 1057TIP3    H229283   0.446   0.680   7.617  0.7180  1.1232 -0.1259
 1058TIP3   OH229284   3.551   6.415   0.429  0.0156  0.5181  0.7895
 1058TIP3    H129285   3.578   6.500   0.463  1.3707 -0.1312  1.4233
 1058TIP3    H229286   3.560   6.355   0.504 -0.0606 -0.3477  0.1259
 1059TIP3   OH229287   6.810   0.804   1.260  0.0529 -0.1107  0.2846
 1059TIP3    H129288   6.795   0.718   1.219 -1.1506 -0.3574  1.1842
 1059TIP3    H229289   6.726   0.849   1.251  0.4381  0.6764  0.5372
 1060TIP3   OH229290   7.993   5.545   2.062  0.0427  0.0059  0.7694
 1060TIP3    H129291   7.938   5.606   2.013 -1.1727 -2.7787 -1.6084
 1060TIP3    H229292   8.083   5.572   2.041 -0.4442 -0.0986 -1.8129
 1061TIP3   OH229293   6.935   7.121   0.341 -0.3568 -0.0792 -0.3568
 1061TIP3    H129294   7.014   7.070   0.322  0.2541  0.6643  0.1380
 1061TIP3    H229295   6.964   7.212   0.340 -1.3728  0.2536 -0.9291
 1062TIP3   OH229296   5.604   5.960   5.948 -0.5436  0.3436  0.9236
 1062TIP3    H129297   5.658   5.889   5.915  0.1549  0.4142  1.8942
 1062TIP3    H229298   5.544   5.980   5.875 -0.3635 -0.8257  0.4316
 1063TIP3   OH229299   1.712   0.465   6.850 -0.0732 -0.6719 -0.0319
 1063TIP3    H129300   1.675   0.553   6.855 -0.2670 -0.7387 -0.2809
 1063TIP3    H229301   1.649   0.410   6.895 -0.8965 -0.9785 -1.4927
 1064TIP3   OH229302   5.588   5.519   1.103 -0.2377  0.0753  0.5189
 1064TIP3    H129303   5.583   5.466   1.183  0.9731 -0.3778  0.3015
 1064TIP3    H229304   5.542   5.466   1.037 -0.9141  0.2842  0.8066
 1065TIP3   OH229305   7.054   6.255   7.318 -0.3190 -0.2958  0.0507
 1065TIP3    H129306   7.134   6.277   7.269 -0.7082 -0.2622 -0.5749
 1065TIP3    H229307   7.085   6.198   7.388  0.1569 -0.8737 -0.6188
 1066TIP3   OH229308   3.376   5.613   6.544 -0.9122 -0.7542  0.1424
 1066TIP3    H129309   3.357   5.552   6.615 -2.1130 -2.5402 -1.6007
 1066TIP3    H229310   3.442   5.569   6.492 -1.4537 -0.3808 -0.8941
 1067TIP3   OH229311   6.371   4.147   1.090 -0.0608 -0.2189 -0.2869
 1067TIP3    H129312   6.457   4.184   1.069 -0.4116  0.4087 -0.6419
 1067TIP3    H229313   6.362   4.073   1.029 -0.0259  0.0818 -0.6591
 1068TIP3   OH229314   1.744   4.114   5.772 -0.3245  0.0901  0.4981
 1068TIP3    H129315   1.730   4.020   5.766  0.5825 -0.1090  1.3061
 1068TIP3    H229316   1.662   4.152   5.742 -0.1456 -0.9128 -1.4911
 1069TIP3   OH229317   7.982   3.751   6.993 -0.4759  0.0337  0.6080
 1069TIP3    H129318   7.893   3.780   7.014  0.1348  1.4255  1.4148
 1069TIP3    H229319   8.020   3.825   6.945 -0.0906 -0.9801 -0.6897
 1070TIP3   OH229320   4.344   3.983   6.558  0.2739 -0.5157  0.3761
 1070TIP3    H129321   4.425   3.934   6.570 -0.9444 -2.5197  0.9658
 1070TIP3    H229322   4.331   4.029   6.641 -0.2026 -1.8608  1.0837
 1071TIP3   OH229323   2.171   2.419   1.203 -0.3742 -0.7476 -0.2500
 1071TIP3    H129324   2.261   2.422   1.236 -1.0878 -0.6856  1.8406
 1071TIP3    H229325   2.143   2.329   1.220 -1.5494 -0.0727  1.6333
 1072TIP3   OH229326   7.498   6.084   7.875  0.1726  0.4585 -0.3227
 1072TIP3    H129327   7.565   6.113   7.938  1.0490 -0.6784 -0.6975
 1072TIP3    H229328   7.508   6.143   7.801 -0.7056  1.6588  0.4659
 1073TIP3   OH229329   2.864   3.497   0.935  0.4023  0.1669 -0.4652
 1073TIP3    H129330   2.774   3.507   0.968  0.3812  0.1519 -0.5168
 1073TIP3    H229331   2.872   3.564   0.867 -1.0208 -2.4710 -3.5124
 1074TIP3   OH229332   0.472   2.304   6.748  0.1245 -0.6009  0.0295
 1074TIP3    H129333   0.526   2.345   6.680  0.0939 -0.1288  0.2853
 1074TIP3    H229334   0.505   2.341   6.830 -0.3218 -0.6124  0.2187
 1075TIP3   OH229335   7.474   6.444   6.465 -0.4646 -0.3093  0.4948
 1075TIP3    H129336   7.460   6.361   6.419 -1.0909  0.4180 -0.6896
 1075TIP3    H229337   7.569   6.452   6.471 -0.3950 -1.0156  0.4339
 1076TIP3   OH229338   4.244   1.095   0.723 -0.3960  0.2009  0.4771
 1076TIP3    H129339   4.324   1.066   0.680  1.7550  0.7952  3.7290
 1076TIP3    H229340   4.203   1.014   0.754  0.7388  0.0276  1.6111
 1077TIP3   OH229341   3.094   0.164   6.514  0.2038 -0.1288  0.3595
 1077TIP3    H129342   3.077   0.118   6.597 -1.4159  0.8298  0.5967
 1077TIP3    H229343   3.180   0.204   6.526 -0.4869  0.9629  2.0806
 1078TIP3   OH229344   5.148   2.847   7.902 -0.0324 -0.4755  0.4899
 1078TIP3    H129345   5.100   2.799   7.970  0.7161 -0.3389  1.1238
 1078TIP3    H229346   5.169   2.931   7.943  1.1718 -0.7182  0.3913
 1079TIP3   OH229347   1.274   4.067   0.870 -0.0193 -0.7227 -0.6101
 1079TIP3    H129348   1.233   4.150   0.897  1.7725  0.3119 -0.9700
 1079TIP3    H229349   1.202   4.017   0.832 -0.7765  1.4751 -2.2563
 1080TIP3   OH229350   1.097   1.248   7.284  0.4245 -0.1748 -0.7615
 1080TIP3    H129351   1.181   1.214   7.315 -0.3671 -1.5195  0.0247
 1080TIP3    H229352   1.038   1.239   7.359 -0.4256  0.7679 -1.2906
 1081TIP3   OH229353   3.137   2.910   2.180 -0.1454  0.1212 -0.8601
 1081TIP3    H129354   3.169   2.820   2.183  0.0468  0.1443 -1.8586
 1081TIP3    H229355   3.213   2.963   2.203 -0.4091  0.0166  0.3209
 1082TIP3   OH229356   7.777   4.799   7.106  0.1996  0.0245 -0.4497
 1082TIP3    H129357   7.754   4.810   7.198 -0.6957  0.3002 -0.7024
 1082TIP3    H229358   7.694   4.806   7.059 -0.0297 -3.9872 -0.9953
 1083TIP3   OH229359   6.346   1.047   5.343 -0.0861 -0.5436 -0.1827
 1083TIP3    H129360   6.338   1.107   5.417 -1.0722 -1.5820  0.5931
 1083TIP3    H229361   6.440   1.042   5.326  0.0834  0.4157  0.3838
 1084TIP3   OH229362   1.819   3.421   1.405 -0.3514  0.4053  0.7773
 1084TIP3    H129363   1.841   3.367   1.481  0.3180 -1.0021 -0.3586
 1084TIP3    H229364   1.893   3.482   1.398  1.5705 -1.9219 -0.8714
 1085TIP3   OH229365   5.771   5.374   7.474 -0.2065  0.0321  0.9197
 1085TIP3    H129366   5.685   5.414   7.459 -0.9764 -2.1917 -1.2704
 1085TIP3    H229367   5.753   5.296   7.525  0.2261 -1.2847 -0.8339
 1086TIP3   OH229368   7.110   6.673   7.319  0.5200  0.6182 -0.2888
 1086TIP3    H129369   7.051   6.672   7.244  2.7006 -0.9616 -2.1073
 1086TIP3    H229370   7.077   6.603   7.376  0.7647 -0.4654 -1.4344
 1087TIP3   OH229371   4.657   5.712   7.412  0.6239  0.4977  0.6281
 1087TIP3    H129372   4.604   5.635   7.431 -0.9688  1.3564 -0.0990
 1087TIP3    H229373   4.593   5.782   7.399  1.9360  1.5462 -0.5181
 1088TIP3   OH229374   3.888   5.309   7.464  0.1537  0.2686  0.0711
 1088TIP3    H129375   3.895   5.352   7.379  0.0895  2.3904  1.0526
 1088TIP3    H229376   3.948   5.235   7.459  1.3325  1.2680 -1.3005
 1089TIP3   OH229377   1.725   1.013   7.440 -0.4756  0.2867  0.2375
 1089TIP3    H129378   1.722   1.004   7.345 -1.7734  0.8730  0.1964
 1089TIP3    H229379   1.727   0.924   7.473 -1.8159  0.0357 -0.3164
 1090TIP3   OH229380   7.699   7.835   0.151  0.2605  0.4773  0.7847
 1090TIP3    H129381   7.763   7.852   0.081 -1.3736 -0.0357 -0.9425
 1090TIP3    H229382   7.680   7.922   0.187 -0.2701  1.0609 -0.7702
 1091TIP3   OH229383   7.901   5.301   0.620  0.3441  0.1665 -0.1867
 1091TIP3    H129384   7.986   5.262   0.600 -0.0274 -0.1030 -1.2996
 1091TIP3    H229385   7.886   5.365   0.550 -0.8467 -0.5682 -0.6383
 1092TIP3   OH229386   5.776   4.077   0.039  0.7361 -0.5875 -0.2158
 1092TIP3    H129387   5.705   4.023   0.004 -0.2996  0.1840  0.6476
 1092TIP3    H229388   5.763   4.077   0.133  0.5080  1.4262 -0.1985
 1093TIP3   OH229389   3.989   0.301   6.816  0.3452 -0.1018 -0.0904
 1093TIP3    H129390   3.957   0.324   6.728 -1.4548  0.3329  0.6257
 1093TIP3    H229391   3.967   0.208   6.826  2.1470 -0.6325 -0.7214
 1094TIP3   OH229392   6.171   0.478   0.038 -0.1955 -0.4258  0.2936
 1094TIP3    H129393   6.157   0.459   0.130 -0.4358 -0.1430  0.3161
 1094TIP3    H229394   6.221   0.560   0.038 -0.6281 -0.1565  0.1655
 1095TIP3   OH229395   5.815   4.261   6.318  0.0446 -0.0315  0.1450
 1095TIP3    H129396   5.775   4.179   6.289 -2.0817  1.4845 -1.5528
 1095TIP3    H229397   5.902   4.260   6.280 -0.3011 -1.0938 -0.6672
 1096TIP3   OH229398   3.211   7.117   7.316 -0.4864 -0.5066  0.5216
 1096TIP3    H129399   3.229   7.146   7.405 -2.5955 -0.1954  0.8946
 1096TIP3    H229400   3.252   7.183   7.260 -2.5217  1.5729  1.3393
 1097TIP3   OH229401   0.668   6.480   0.838  0.1684 -0.2608  0.1941
 1097TIP3    H129402   0.674   6.526   0.754 -3.3217  0.0946 -0.0161
 1097TIP3    H229403   0.758   6.475   0.869  1.4951  0.4317 -3.1043
 1098TIP3   OH229404   7.239   6.820   1.544 -0.6809 -0.0685  0.1667
 1098TIP3    H129405   7.276   6.906   1.526  0.4892 -0.3248  1.1720
 1098TIP3    H229406   7.299   6.781   1.608 -0.8540 -1.8548 -0.6750
 1099TIP3   OH229407   5.134   6.382   1.231  0.6433 -0.9240 -0.6508
 1099TIP3    H129408   5.149   6.305   1.176  1.4986 -0.3630 -1.2023
 1099TIP3    H229409   5.165   6.456   1.180 -0.1978 -0.1851 -0.1332
 1100TIP3   OH229410   4.267   2.265   0.001  0.6157  0.7491  0.3967
 1100TIP3    H129411   4.292   2.174   0.020 -5.3673 -1.4810 -0.2117
 1100TIP3    H229412   4.276   2.273  -0.094  0.9598  0.7461  0.4274
 1101TIP3   OH229413   5.199   6.065   6.749  0.0299  0.2676  0.5605
 1101TIP3    H129414   5.132   6.130   6.773  1.2626  1.6381  0.4281
 1101TIP3    H229415   5.259   6.064   6.824  0.5567  0.0271  0.1438
 1102TIP3   OH229416   8.113   3.814   1.427  0.5761 -0.1183  0.6094
 1102TIP3    H129417   8.077   3.903   1.436  0.2311 -0.0704 -0.8447
 1102TIP3    H229418   8.036   3.759   1.413  0.8106 -0.6054  1.2434
 1103TIP3   OH229419   2.711   8.082   0.250  0.9643 -0.1209 -0.4173
 1103TIP3    H129420   2.630   8.064   0.299 -0.1440  1.0442 -1.7313
 1103TIP3    H229421   2.779   8.036   0.299 -0.4443 -0.9265  0.8840
 1104TIP3   OH229422   5.314   1.308   6.871 -0.4195  0.0070 -0.5283
 1104TIP3    H129423   5.333   1.301   6.965  0.6906  1.5320 -0.5965
 1104TIP3    H229424   5.397   1.334   6.832 -1.0816  0.2575 -1.8284
 1105TIP3   OH229425   0.981   7.764   7.884 -0.0765 -0.5370  0.1429
 1105TIP3    H129426   0.895   7.797   7.910  0.5732 -0.0531  1.8189
 1105TIP3    H229427   1.012   7.826   7.818 -0.9082 -0.6137 -0.3377
 1106TIP3   OH229428   3.959   2.164   7.002  0.0704  0.2707 -0.1113
 1106TIP3    H129429   3.931   2.126   6.919  2.6090 -1.1291 -0.4288
 1106TIP3    H229430   3.996   2.249   6.978 -0.1594  0.3395 -0.2337
 1107TIP3   OH229431   7.973   2.383   2.418  0.0245  0.1048  0.1920
 1107TIP3    H129432   7.895   2.411   2.369 -0.9750  0.4718  1.8972
 1107TIP3    H229433   7.947   2.392   2.510  2.4325  1.1938  0.8281
 1108TIP3   OH229434   5.716   3.018   6.082  0.0531 -0.1003 -0.6742
 1108TIP3    H129435   5.789   3.066   6.044 -0.6258 -0.1976 -2.1444
 1108TIP3    H229436   5.638   3.066   6.055 -0.4745 -0.1848  0.5884
 1109TIP3   OH229437   4.935   5.044   6.710 -0.8498 -0.5276 -0.4794
 1109TIP3    H129438   5.020   5.038   6.754 -1.6852 -0.4803  1.2436
 1109TIP3    H229439   4.954   5.089   6.627  0.7857 -0.4554 -0.1088
 1110TIP3   OH229440   5.696   3.069   6.390 -0.2750  0.6672 -0.4133
 1110TIP3    H129441   5.749   3.148   6.391  1.7642 -0.6197  0.5620
 1110TIP3    H229442   5.728   3.020   6.314  0.4542 -0.4075  0.5485
 1111TIP3   OH229443   7.806   4.743   6.275  0.0034  0.9305 -0.0377
 1111TIP3    H129444   7.728   4.736   6.220  1.1641  0.5283 -1.6934
 1111TIP3    H229445   7.776   4.790   6.353 -2.1660 -0.2802 -0.0546
 1112TIP3   OH229446   3.331   0.137   5.912 -1.2608  0.5155  0.2036
 1112TIP3    H129447   3.359   0.227   5.896  0.0513 -0.2624 -2.4009
 1112TIP3    H229448   3.334   0.095   5.826 -2.3824 -1.9006  1.2427
 1113TIP3   OH229449   0.954   7.731   6.245  0.3462 -0.4413  0.0211
 1113TIP3    H129450   0.980   7.696   6.160  1.5647 -2.3115  1.0886
 1113TIP3    H229451   0.961   7.826   6.235  0.1341 -0.6018 -2.0443
 1114TIP3   OH229452   5.063   5.095   0.969  0.2225 -0.0822  0.2571
 1114TIP3    H129453   5.096   5.106   1.058  1.7559 -0.0935 -0.2791
 1114TIP3    H229454   5.005   5.169   0.955  1.1962  0.7961  0.7402
 1115TIP3   OH229455   1.140   0.015   1.287  0.1043 -0.1856 -0.0361
 1115TIP3    H129456   1.125   0.008   1.192  0.4628 -0.8044 -0.0507
 1115TIP3    H229457   1.079  -0.048   1.326  2.7573 -3.0405 -0.1202
 1116TIP3   OH229458   3.101   3.643   1.518 -0.1891  0.3329 -0.4036
 1116TIP3    H129459   3.037   3.574   1.500 -1.3854  1.0170  1.0354
 1116TIP3    H229460   3.076   3.715   1.460  1.2032 -0.4705 -2.0780
 1117TIP3   OH229461   6.383   6.006   7.477 -0.2799  0.1035 -0.6271
 1117TIP3    H129462   6.460   6.063   7.472  0.7506 -1.2260 -0.7619
 1117TIP3    H229463   6.417   5.919   7.452 -1.2987 -1.0087  1.5740
 1118TIP3   OH229464   4.472   6.848   6.961  0.3720  0.1822  0.1152
 1118TIP3    H129465   4.550   6.892   6.928 -0.4256  0.9476 -0.8221
 1118TIP3    H229466   4.448   6.898   7.039  0.9320 -0.1993  0.5437
 1119TIP3   OH229467   5.198   1.506   1.454 -0.2618 -0.2797  0.2744
 1119TIP3    H129468   5.221   1.520   1.362 -1.2040  0.9656  0.2056
 1119TIP3    H229469   5.147   1.584   1.479 -0.4550 -0.8258  1.7056
 1120TIP3   OH229470   2.238   4.495   1.231 -0.4778  0.2810  0.1476
 1120TIP3    H129471   2.271   4.539   1.153  1.9075 -3.9778 -1.5469
 1120TIP3    H229472   2.193   4.418   1.198 -1.0215 -0.7120  2.9565
 1121TIP3   OH229473   4.847   2.094   0.463 -0.0709  0.2139  0.0310
 1121TIP3    H129474   4.879   2.149   0.391 -1.9891  0.8089 -0.4159
 1121TIP3    H229475   4.809   2.157   0.525  2.7105 -0.1325  2.3114
 1122TIP3   OH229476   2.721   4.889   6.975 -0.0661 -0.7014  0.1861
 1122TIP3    H129477   2.718   4.984   6.982 -1.9761 -0.8010  1.4487
 1122TIP3    H229478   2.749   4.872   6.885  1.6778  1.0001  0.3457
 1123TIP3   OH229479   5.180   4.618   6.866  0.4808  0.3301 -0.3602
 1123TIP3    H129480   5.098   4.640   6.910 -0.6314 -1.0662 -1.6071
 1123TIP3    H229481   5.198   4.528   6.892  4.1266  1.8256  3.4675
 1124TIP3   OH229482   7.138   1.194   1.903 -0.1130 -0.3189  0.5879
 1124TIP3    H129483   7.118   1.132   1.973 -0.8487 -1.1528 -0.3240
 1124TIP3    H229484   7.203   1.149   1.850 -0.5558 -0.2684 -0.0077
 1125TIP3   OH229485   0.897   1.823   7.178 -0.2031 -0.5866 -0.2107
 1125TIP3    H129486   0.937   1.910   7.182  1.8400 -1.5099  1.8039
 1125TIP3    H229487   0.811   1.834   7.218 -0.2665  0.6255 -0.6364
 1126TIP3   OH229488   4.863   6.370   7.245  0.3990 -0.1307 -0.1553
 1126TIP3    H129489   4.926   6.439   7.265 -0.6051  0.0644  2.8093
 1126TIP3    H229490   4.881   6.302   7.310 -1.5857 -0.6335 -0.0835
 1127TIP3   OH229491   4.465   5.236   1.145 -0.0507 -0.0574 -0.0584
 1127TIP3    H129492   4.537   5.298   1.144  0.8435 -1.0571  0.6870
 1127TIP3    H229493   4.498   5.158   1.100 -1.2803  0.1094 -1.3258
 1128TIP3   OH229494   5.237   2.266   1.129  0.0001  0.1961  0.5787
 1128TIP3    H129495   5.275   2.300   1.048 -2.1895 -0.6828 -0.8982
 1128TIP3    H229496   5.267   2.328   1.196  1.5894  1.1596 -0.9127
 1129TIP3   OH229497   1.968   7.579   5.658  0.2110  0.4672  0.2375
 1129TIP3    H129498   1.977   7.671   5.633  0.4201 -0.1028 -1.9684
 1129TIP3    H229499   2.049   7.538   5.627 -1.8052 -1.3182 -3.2708
 1130TIP3   OH229500   6.613   3.152   0.996 -0.5495 -0.0391  0.0179
 1130TIP3    H129501   6.687   3.207   1.022 -2.5023  1.6197  2.6428
 1130TIP3    H229502   6.587   3.186   0.910 -0.1198  1.4568  0.4442
 1131TIP3   OH229503   1.707   2.918   6.616  0.6918 -0.1185  0.1730
 1131TIP3    H129504   1.660   2.997   6.642  0.2819 -1.0591  2.5669
 1131TIP3    H229505   1.640   2.849   6.614  1.5581 -1.0689  1.6480
 1132TIP3   OH229506   7.426   2.477   2.039  0.7193 -0.2354 -0.3131
 1132TIP3    H129507   7.344   2.434   2.063  1.2561 -0.4810  1.1714
 1132TIP3    H229508   7.398   2.558   1.995 -0.2964 -0.7318 -0.6278
 1133TIP3   OH229509   2.803   7.976   5.448 -0.4804 -0.4831  0.2505
 1133TIP3    H129510   2.823   7.900   5.503  0.4466 -0.3453  0.1149
 1133TIP3    H229511   2.714   8.000   5.473 -0.5131 -1.1572  0.8305
 1134TIP3   OH229512   5.611   3.236   7.945 -0.5738  0.2533  0.4312
 1134TIP3    H129513   5.664   3.291   7.888 -1.3773 -0.1482 -0.7321
 1134TIP3    H229514   5.558   3.297   7.996  0.6177  0.6370  1.2385
 1135TIP3   OH229515   6.852   4.077   1.462 -0.1179  0.1410 -0.3504
 1135TIP3    H129516   6.903   4.097   1.384 -2.0087  0.7357 -1.4927
 1135TIP3    H229517   6.803   3.998   1.439 -0.7813  0.3869  0.1711
 1136TIP3   OH229518   0.266   1.158   0.281  0.2910  0.8606  0.1866
 1136TIP3    H129519   0.198   1.115   0.228 -0.0564  1.0255  0.4885
 1136TIP3    H229520   0.331   1.090   0.298  0.2009  0.6987 -0.1055
 1137TIP3   OH229521   7.506   7.833   0.411  0.3253  0.0249  0.0371
 1137TIP3    H129522   7.453   7.822   0.332  1.3379  1.5584 -0.9248
 1137TIP3    H229523   7.544   7.921   0.401  1.3359 -0.1918  1.7146
 1138TIP3   OH229524   3.315   5.130   7.161  0.0500  0.4029 -0.3987
 1138TIP3    H129525   3.259   5.202   7.188 -0.0916 -0.0403  0.5535
 1138TIP3    H229526   3.294   5.059   7.222  1.1984  0.0312 -0.4069
 1139TIP3   OH229527   1.549   7.202   6.458 -0.1400 -0.5769 -0.3017
 1139TIP3    H129528   1.605   7.278   6.475  1.2338 -1.6056 -0.1279
 1139TIP3    H229529   1.550   7.192   6.363 -1.8156  0.6909 -0.5003
 1140TIP3   OH229530   3.577   6.591   7.167 -0.3571 -0.0781 -0.3636
 1140TIP3    H129531   3.485   6.600   7.188  0.1686  0.5461  1.9956
 1140TIP3    H229532   3.618   6.565   7.250  1.6781  0.3654 -1.1645
 1141TIP3   OH229533   2.182   3.638   0.638  0.2515  0.2803  0.3043
 1141TIP3    H129534   2.112   3.621   0.575 -0.6561 -0.8687  1.5859
 1141TIP3    H229535   2.260   3.600   0.597 -0.1756  0.1556 -0.4182
 1142TIP3   OH229536   2.900   3.585   0.619 -0.1482  0.3253 -0.3387
 1142TIP3    H129537   2.876   3.492   0.615 -0.3954  0.3798 -0.1280
 1142TIP3    H229538   2.993   3.586   0.596 -0.0538 -0.0110  0.0114
 1143TIP3   OH229539   5.860   4.162   2.843  0.3414  0.3231  0.4875
 1143TIP3    H129540   5.933   4.101   2.848  0.1995  0.1697  0.6848
 1143TIP3    H229541   5.884   4.232   2.903  0.1021  0.0351  0.9173
 1144TIP3   OH229542   2.002   2.193   0.321  0.0053 -0.0205 -0.6003
 1144TIP3    H129543   1.962   2.154   0.243  0.1895  0.5358 -0.9737
 1144TIP3    H229544   2.080   2.238   0.289 -0.1434  0.5655 -0.1656
 1145TIP3   OH229545   0.813   3.844   0.594 -0.0881  0.4271  0.0585
 1145TIP3    H129546   0.794   3.877   0.507 -1.1966  1.3228  0.6116
 1145TIP3    H229547   0.755   3.894   0.652  0.5823 -0.1849  1.2995
 1146TIP3   OH229548   3.119   6.545   1.633  0.9460  0.0678 -0.5780
 1146TIP3    H129549   3.157   6.494   1.561 -0.7160 -1.0901 -0.6998
 1146TIP3    H229550   3.071   6.480   1.685 -1.0703  1.4505 -0.5988
 1147TIP3   OH229551   1.517   6.692   0.539  0.6680 -0.3718 -0.1208
 1147TIP3    H129552   1.527   6.625   0.471  0.9477 -0.2169 -0.2331
 1147TIP3    H229553   1.541   6.774   0.495  2.3525 -0.4565  0.5691
 1148TIP3   OH229554   1.957   6.411   2.038 -0.0142 -0.0508 -0.7554
 1148TIP3    H129555   2.051   6.393   2.039  0.1040  0.5474 -1.0298
 1148TIP3    H229556   1.950   6.503   2.013 -0.7335 -0.4473 -2.0648
 1149TIP3   OH229557   4.829   5.286   0.954 -0.9564  0.2483 -0.2927
 1149TIP3    H129558   4.874   5.339   0.888  1.7640  1.2937  2.2036
 1149TIP3    H229559   4.803   5.349   1.021 -0.4314 -1.1555  1.2988
 1150TIP3   OH229560   7.148   0.052   2.560  0.4192 -0.2738  0.5366
 1150TIP3    H129561   7.168   0.134   2.514  0.2286 -0.7347 -0.3837
 1150TIP3    H229562   7.059   0.032   2.535  0.3582 -0.6124  1.0143
 1151TIP3   OH229563   3.142   6.477   0.739 -0.5920 -0.0008  0.3270
 1151TIP3    H129564   3.213   6.524   0.782 -0.5424 -1.3848  1.8324
 1151TIP3    H229565   3.183   6.432   0.666  0.3452 -1.5574  1.7332
 1152TIP3   OH229566   1.522   6.391   6.966  0.4044 -0.1821  0.2800
 1152TIP3    H129567   1.574   6.440   7.030  0.8741 -0.3749  0.0515
 1152TIP3    H229568   1.449   6.449   6.945 -0.7812 -0.8624  2.3668
 1153TIP3   OH229569   5.374   4.608   5.834 -0.1077  0.4133 -0.3507
 1153TIP3    H129570   5.413   4.521   5.836 -1.2123 -0.1137 -0.6367
 1153TIP3    H229571   5.448   4.668   5.833  0.6679 -0.4962  0.7120
 1154TIP3   OH229572   1.761   8.028   1.702 -0.3381 -1.1946  0.2290
 1154TIP3    H129573   1.819   8.103   1.702 -2.1010  0.2475  1.2263
 1154TIP3    H229574   1.742   8.012   1.795 -0.9980 -2.0403 -0.0353
 1155TIP3   OH229575   1.830   5.447   0.124 -0.3303 -0.7197  0.0264
 1155TIP3    H129576   1.892   5.469   0.054  1.0676  4.0060  2.3485
 1155TIP3    H229577   1.745   5.441   0.080  0.7513  0.1120 -2.3381
 1156TIP3   OH229578   1.811   5.149   7.145  0.5704  0.1297 -0.1211
 1156TIP3    H129579   1.834   5.149   7.238 -1.5381 -1.8046  0.4981
 1156TIP3    H229580   1.734   5.207   7.140  0.1757 -0.4165 -0.4894
 1157TIP3   OH229581   6.201   1.007   0.155  0.1379 -0.7744 -0.0362
 1157TIP3    H129582   6.155   1.070   0.098 -1.4107 -1.3894  0.4655
 1157TIP3    H229583   6.293   1.032   0.150 -0.4720  1.9038  0.5864
 1158TIP3   OH229584   7.326   2.301   7.921 -0.4478  0.0491  1.1659
 1158TIP3    H129585   7.283   2.339   7.845  0.7839  1.9091  1.3359
 1158TIP3    H229586   7.259   2.301   7.989 -1.4613 -1.3135  0.2234
 1159TIP3   OH229587   3.663   3.887   0.834  0.6052  0.1061  0.4373
 1159TIP3    H129588   3.630   3.932   0.756  0.0014 -1.4529 -0.2404
 1159TIP3    H229589   3.623   3.934   0.908 -1.2324 -0.2473 -0.2823
 1160TIP3   OH229590   5.055   3.524   7.204  0.0190 -0.0432 -0.4268
 1160TIP3    H129591   4.987   3.522   7.136  0.8409  1.4042 -1.3458
 1160TIP3    H229592   5.055   3.615   7.235 -0.8878 -0.8240  2.1522
 1161TIP3   OH229593   5.723   0.977   0.276 -0.7008 -0.4031 -0.1370
 1161TIP3    H129594   5.809   0.966   0.317 -1.3704  0.2596  1.4892
 1161TIP3    H229595   5.669   1.018   0.343 -1.5631  1.7338 -2.0016
 1162TIP3   OH229596   2.615   2.314   7.294  0.3279  0.3686  0.0864
 1162TIP3    H129597   2.664   2.320   7.376  1.2614 -0.8193 -0.3459
 1162TIP3    H229598   2.568   2.397   7.288  0.8921  0.8173  1.4088
 1163TIP3   OH229599   1.535   7.423   1.004 -0.0066 -0.0124  0.1893
 1163TIP3    H129600   1.450   7.381   0.994  0.5301 -0.9110 -0.7930
 1163TIP3    H229601   1.537   7.491   0.937 -0.2239  0.5122  0.7005
 1164TIP3   OH229602   3.152   7.232   7.918 -0.4312 -0.2590 -0.3788
 1164TIP3    H129603   3.083   7.169   7.895  0.8876 -1.0258 -2.6406
 1164TIP3    H229604   3.109   7.296   7.974 -2.7906 -1.0986 -1.1017
 1165TIP3   OH229605   7.927   5.060   1.155  0.3143  0.5709  0.3954
 1165TIP3    H129606   7.984   5.131   1.126  0.7238  0.1780  0.2270
 1165TIP3    H229607   7.840   5.086   1.124  0.0492  2.0575  2.2230
 1166TIP3   OH229608   2.083   4.637   6.057  0.2135  0.1925  0.0456
 1166TIP3    H129609   2.122   4.694   5.990 -0.8826  3.4220  1.9756
 1166TIP3    H229610   2.000   4.609   6.019  0.1913  0.9064 -0.4455
 1167TIP3   OH229611   0.728   1.945   1.702  0.0841 -0.0080  0.8214
 1167TIP3    H129612   0.787   1.951   1.626 -0.2620 -1.1870  0.4358
 1167TIP3    H229613   0.786   1.920   1.774 -0.0542 -2.5279  0.1716
 1168TIP3   OH229614   1.564   7.610   6.681 -0.2285 -0.6141  0.0640
 1168TIP3    H129615   1.651   7.650   6.678 -0.1498 -0.7972 -0.0882
 1168TIP3    H229616   1.505   7.682   6.704 -0.2845 -0.0980 -1.5690
 1169TIP3   OH229617   3.817   8.095   7.762  0.5916  0.5159  0.4080
 1169TIP3    H129618   3.814   8.034   7.835  0.1963  0.2625  0.1808
 1169TIP3    H229619   3.775   8.049   7.690 -0.6151  1.4208  0.5036
 1170TIP3   OH229620   1.289   7.290   1.059 -0.2545  0.2398 -0.2323
 1170TIP3    H129621   1.224   7.257   0.997  1.6409 -2.9648 -0.7549
 1170TIP3    H229622   1.287   7.228   1.131  1.0863  0.9743  0.4824
 1171TIP3   OH229623   2.269   2.720   0.955  0.2206  0.2192  0.1569
 1171TIP3    H129624   2.254   2.721   1.049 -0.6934 -2.7414  0.1384
 1171TIP3    H229625   2.359   2.688   0.945  0.8407  1.9129 -0.0091
 1172TIP3   OH229626   6.058   0.258   7.091  0.2466  0.0233 -0.1930
 1172TIP3    H129627   6.137   0.251   7.037  0.3165  0.4012 -0.1447
 1172TIP3    H229628   5.988   0.220   7.038 -0.1443  2.4254 -1.5138
 1173TIP3   OH229629   6.187   6.785   0.705  1.0799 -0.0357 -0.0360
 1173TIP3    H129630   6.220   6.763   0.618  1.8818  0.3344  0.1711
 1173TIP3    H229631   6.095   6.809   0.690  0.8222 -1.2744 -0.5857
 1174TIP3   OH229632   0.583   5.581   7.135  0.0745 -0.0075  0.0381
 1174TIP3    H129633   0.657   5.633   7.104 -1.1559  0.9728 -1.3597
 1174TIP3    H229634   0.513   5.645   7.150 -0.7994 -1.0187  0.4394
 1175TIP3   OH229635   1.284   5.420   6.269 -0.2271 -0.0017 -0.0718
 1175TIP3    H129636   1.321   5.411   6.181  1.5239 -2.7478  0.7984
 1175TIP3    H229637   1.189   5.414   6.255  0.0455 -2.6615 -1.7015
 1176TIP3   OH229638   4.618   6.745   1.328  0.1209  0.3438 -0.0853
 1176TIP3    H129639   4.596   6.652   1.340  0.4289  0.2981  0.1227
 1176TIP3    H229640   4.701   6.756   1.373 -0.7134  1.1131  1.3114
 1177TIP3   OH229641   0.823   7.364   6.405 -0.0697  0.3832 -0.3135
 1177TIP3    H129642   0.745   7.420   6.410  0.5678  1.2810 -0.1046
 1177TIP3    H229643   0.805   7.303   6.334 -0.9622  0.5907 -0.2715
 1178TIP3   OH229644   0.199   3.776   7.328 -0.3705  0.1371  0.2495
 1178TIP3    H129645   0.212   3.863   7.366 -0.1633 -0.5090  1.7322
 1178TIP3    H229646   0.107   3.776   7.301 -0.3544  0.8368  0.1739
 1179TIP3   OH229647   2.497   0.201   6.160 -0.0959  0.1271 -0.4305
 1179TIP3    H129648   2.550   0.221   6.238 -0.0006  1.2727 -0.7715
 1179TIP3    H229649   2.431   0.139   6.191  0.6900 -0.3681  0.2836
 1180TIP3   OH229650   4.529   2.363   6.445  0.3759 -0.0337  0.1445
 1180TIP3    H129651   4.441   2.373   6.480 -0.2940 -1.1539 -1.1409
 1180TIP3    H229652   4.522   2.294   6.379  2.5975 -1.5503  1.3235
 1181TIP3   OH229653   7.607   1.843   7.883  0.3169 -0.2344  0.2889
 1181TIP3    H129654   7.551   1.917   7.910  0.6040 -0.0884  0.4836
 1181TIP3    H229655   7.559   1.802   7.811  0.1939  0.1903  0.1280
 1182TIP3   OH229656   2.675   6.349   6.991  0.4352  0.0501 -0.3029
 1182TIP3    H129657   2.630   6.430   6.966 -1.2879 -1.4677 -2.4846
 1182TIP3    H229658   2.768   6.371   6.984  0.0247  1.9943 -0.2664
 1183TIP3   OH229659   7.366   2.735   1.945  0.3634 -0.0622  0.8081
 1183TIP3    H129660   7.381   2.826   1.921  1.5470  0.2068  2.3699
 1183TIP3    H229661   7.276   2.732   1.975 -0.0737  0.3021 -0.4132
 1184TIP3   OH229662   6.245   7.539   2.303 -0.2951  0.6292  0.6262
 1184TIP3    H129663   6.240   7.482   2.227 -1.1924  2.7213 -0.9843
 1184TIP3    H229664   6.175   7.507   2.361 -0.4282 -0.2066  0.0225
 1185TIP3   OH229665   2.688   3.738   6.738  0.5437  0.1503 -0.2784
 1185TIP3    H129666   2.598   3.703   6.741  1.1701 -1.6636 -1.0077
 1185TIP3    H229667   2.688   3.809   6.801 -1.9460  1.5278 -1.6636
 1186TIP3   OH229668   1.165   5.343   5.995 -0.7515 -0.0984 -0.4187
 1186TIP3    H129669   1.163   5.345   5.899  1.1472  0.4101 -0.4862
 1186TIP3    H229670   1.079   5.309   6.020 -1.2129 -0.4225 -2.2981
 1187TIP3   OH229671   7.516   1.763   5.880  0.5619  0.2820 -0.1050
 1187TIP3    H129672   7.421   1.768   5.881  0.5677  0.5498 -0.7342
 1187TIP3    H229673   7.539   1.748   5.789  1.0796 -0.7965  0.1882
 1188TIP3   OH229674   6.287   3.626   6.749 -0.5669 -0.4405  0.0462
 1188TIP3    H129675   6.367   3.630   6.698 -0.5491 -2.0675 -0.1129
 1188TIP3    H229676   6.316   3.631   6.840 -0.4163  0.3683 -0.0428
 1189TIP3   OH229677   4.784   3.773   0.633 -0.2859 -0.4637  0.3061
 1189TIP3    H129678   4.744   3.688   0.614 -0.7155 -0.2524  0.2452
 1189TIP3    H229679   4.710   3.833   0.638 -0.0057 -0.1439  0.6358
 1190TIP3   OH229680   4.872   5.888   6.505  0.2501  0.1615 -0.4042
 1190TIP3    H129681   4.916   5.962   6.464 -0.2903  0.9344  0.3917
 1190TIP3    H229682   4.803   5.927   6.559  1.6226 -0.7176  2.1409
 1191TIP3   OH229683   4.523   0.500   6.765  0.2053  0.5560  0.3717
 1191TIP3    H129684   4.616   0.494   6.782  0.1693  0.3997  0.5181
 1191TIP3    H229685   4.490   0.564   6.828 -0.0029 -0.3565  1.2187
 1192TIP3   OH229686   1.722   6.373   7.415 -0.4073 -0.1418 -0.0324
 1192TIP3    H129687   1.713   6.280   7.397 -0.8428  0.1782 -1.6276
 1192TIP3    H229688   1.677   6.386   7.499 -1.7595 -1.1163 -0.5721
 1193TIP3   OH229689   2.747   1.191   0.373  0.5652  0.3430  0.0560
 1193TIP3    H129690   2.836   1.225   0.365  1.0712 -1.1465 -0.9027
 1193TIP3    H229691   2.694   1.251   0.320  1.3087  0.1253 -0.9565
 1194TIP3   OH229692   4.351   0.734   6.464  0.1003  0.3034 -0.1916
 1194TIP3    H129693   4.313   0.656   6.506  0.9677  0.2940  0.6216
 1194TIP3    H229694   4.393   0.700   6.385 -0.1635  0.0595 -0.2309
 1195TIP3   OH229695   5.414   5.698   7.843  0.5644 -0.1214 -0.2863
 1195TIP3    H129696   5.476   5.627   7.860  0.1951 -0.5840 -0.8265
 1195TIP3    H229697   5.368   5.710   7.926  1.4966  0.3630  0.1812
 1196TIP3   OH229698   1.986   1.572   6.931  0.3313 -0.2520  0.1016
 1196TIP3    H129699   1.906   1.573   6.879  0.5491  0.9127 -0.2489
 1196TIP3    H229700   1.982   1.652   6.983 -0.0028 -1.4975  2.1174
 1197TIP3   OH229701   7.601   2.228   7.866 -0.2938 -0.4197 -0.0028
 1197TIP3    H129702   7.514   2.266   7.883 -0.1156 -0.7791  2.0385
 1197TIP3    H229703   7.661   2.285   7.914  0.5940 -0.3103 -1.2149
 1198TIP3   OH229704   4.631   3.001   0.068  0.0070 -0.2155  0.2304
 1198TIP3    H129705   4.550   2.972   0.110  1.0018 -0.7870  1.7845
 1198TIP3    H229706   4.645   2.938  -0.002  0.7271 -1.9869  1.9019
 1199TIP3   OH229707   3.140   5.777   5.994  0.1585  0.9192  0.0494
 1199TIP3    H129708   3.230   5.809   5.998 -0.5127  2.8612  1.7254
 1199TIP3    H229709   3.096   5.838   5.934 -0.5873  1.6765  1.3152
 1200TIP3   OH229710   5.763   3.306   1.452  0.2070  0.6788  0.2900
 1200TIP3    H129711   5.730   3.289   1.540 -0.6979  0.7372 -0.0239
 1200TIP3    H229712   5.700   3.368   1.415  1.7500  2.3706  0.3438
 1201TIP3   OH229713   1.873   0.681   1.412 -0.2656 -0.5174 -0.1650
 1201TIP3    H129714   1.912   0.649   1.492  0.3833  1.5129  0.3932
 1201TIP3    H229715   1.780   0.691   1.433 -0.5911 -2.3872 -0.5173
 1202TIP3   OH229716   4.359   6.340   7.739  0.3831  0.0905 -0.4038
 1202TIP3    H129717   4.443   6.342   7.784 -0.7663 -0.1968  1.8634
 1202TIP3    H229718   4.348   6.248   7.714 -0.2475 -0.3553  1.3689
 1203TIP3   OH229719   2.607   4.614   1.413  0.3433  0.1803 -0.0060
 1203TIP3    H129720   2.662   4.606   1.336  1.3992  1.3661  0.5941
 1203TIP3    H229721   2.633   4.540   1.469 -0.6441 -0.8630 -0.8785
 1204TIP3   OH229722   3.001   5.076   0.995 -0.3270  0.0262 -0.4319
 1204TIP3    H129723   3.087   5.052   0.960 -0.5903 -0.5204 -0.7194
 1204TIP3    H229724   3.001   5.172   0.994 -0.3613  0.0340 -2.0531
 1205TIP3   OH229725   4.645   0.568   7.550 -0.5462 -0.8779 -0.0705
 1205TIP3    H129726   4.597   0.535   7.626 -0.6542 -0.8065 -0.1078
 1205TIP3    H229727   4.587   0.634   7.512  0.0275 -0.0101  0.5218
 1206TIP3   OH229728   5.213   1.745   0.512  0.0325 -0.0805  0.2177
 1206TIP3    H129729   5.204   1.662   0.465  0.5153  0.6678 -1.2863
 1206TIP3    H229730   5.127   1.760   0.551 -0.1675 -1.1005  0.2036
 1207TIP3   OH229731   3.748   4.168   7.832  0.1449 -0.2053 -0.1324
 1207TIP3    H129732   3.722   4.114   7.758  0.5356 -0.9167  0.2422
 1207TIP3    H229733   3.746   4.257   7.799 -0.9634 -0.3989 -0.6323
 1208TIP3   OH229734   1.999   5.639   6.234  0.0433 -0.0634  0.2056
 1208TIP3    H129735   1.983   5.732   6.219  3.6077  0.7602  0.4774
 1208TIP3    H229736   2.039   5.609   6.152 -0.8857 -1.3480  0.1935
 1209TIP3   OH229737   7.113   2.184   1.059  0.5901 -0.4428  0.2712
 1209TIP3    H129738   7.180   2.146   1.002 -0.6875 -2.1103 -0.1844
 1209TIP3    H229739   7.088   2.265   1.017  1.6596 -0.2590 -0.0364
 1210TIP3   OH229740   6.641   2.362   7.708 -0.1532 -0.4083 -0.3772
 1210TIP3    H129741   6.706   2.326   7.768  0.2387  1.0155  0.0854
 1210TIP3    H229742   6.612   2.443   7.750 -2.6907 -1.2903 -0.2613
 1211TIP3   OH229743   5.140   4.706   0.317  0.2563  0.0322 -0.6651
 1211TIP3    H129744   5.164   4.741   0.403  1.0097 -0.6151 -0.5932
 1211TIP3    H229745   5.162   4.612   0.323  0.6785  0.0555 -1.6843
 1212TIP3   OH229746   2.493   1.270   6.804 -0.0443 -0.0277 -0.7122
 1212TIP3    H129747   2.466   1.184   6.838 -0.2680  1.1530  2.3570
 1212TIP3    H229748   2.572   1.252   6.753  0.7102 -1.9034  0.9959
 1213TIP3   OH229749   3.783   0.393   5.493  0.0408 -0.4393 -0.1293
 1213TIP3    H129750   3.769   0.470   5.548  1.4400 -0.7697  0.7449
 1213TIP3    H229751   3.772   0.426   5.403 -0.7515  0.4518  0.2716
 1214TIP3   OH229752   7.222   6.752   5.979  0.0222 -0.0186 -0.0134
 1214TIP3    H129753   7.284   6.794   6.039 -1.5072 -0.3112  1.8862
 1214TIP3    H229754   7.140   6.799   5.993 -1.0445 -1.8277  0.1375
 1215TIP3   OH229755   4.232   0.556   0.915 -0.6962  0.6498  0.1639
 1215TIP3    H129756   4.188   0.549   0.999 -2.1122 -0.5367 -0.6333
 1215TIP3    H229757   4.290   0.480   0.911  1.0998  1.8850  0.9525
 1216TIP3   OH229758   4.704   7.553   7.106  0.0314  0.3441 -0.3232
 1216TIP3    H129759   4.646   7.629   7.103  1.4658  1.4686 -0.0918
 1216TIP3    H229760   4.657   7.490   7.162 -1.0452  1.1443 -0.2960
 1217TIP3   OH229761   0.975   7.759   6.701  0.1381  0.0377  0.2475
 1217TIP3    H129762   0.895   7.711   6.725  0.4514  0.0466  1.4015
 1217TIP3    H229763   1.005   7.797   6.784  2.0607 -1.0527  0.1009
 1218TIP3   OH229764   7.048   7.072   7.187  0.2749 -0.0781  0.8390
 1218TIP3    H129765   7.087   7.121   7.259  1.0555  0.0614  0.3300
 1218TIP3    H229766   6.998   7.002   7.230  0.8939 -0.1180  1.5117
 1219TIP3   OH229767   3.138   2.257   7.227 -0.3199  0.5593 -0.4410
 1219TIP3    H129768   3.142   2.235   7.134 -1.2604  1.3843 -0.6950
 1219TIP3    H229769   3.185   2.341   7.233  1.1193 -0.2555  0.1069
 1220TIP3   OH229770   3.811   7.475   1.487  0.1620  0.3589 -0.7095
 1220TIP3    H129771   3.881   7.539   1.500 -0.8372  0.9542  2.5820
 1220TIP3    H229772   3.820   7.414   1.560 -2.8770  0.6090 -0.0168
 1221TIP3   OH229773   1.586   4.994   7.861 -0.5837 -0.0913  0.4002
 1221TIP3    H129774   1.619   5.083   7.847 -0.4295 -0.0302  1.1310
 1221TIP3    H229775   1.542   4.972   7.779  1.6163 -0.3449 -0.7971
 1222TIP3   OH229776   5.435   5.663   6.403 -0.6006 -0.2388 -0.2359
 1222TIP3    H129777   5.417   5.627   6.316 -1.9386  2.8529 -1.3924
 1222TIP3    H229778   5.480   5.745   6.386 -0.9891  0.4996  1.9784
 1223TIP3   OH229779   5.656   4.806   7.002  0.3024 -0.1640 -0.3546
 1223TIP3    H129780   5.649   4.711   6.999 -1.2679 -0.0748 -0.4230
 1223TIP3    H229781   5.719   4.824   7.071  0.7448 -1.2526 -0.4584
 1224TIP3   OH229782   1.860   8.070   0.701 -0.1778 -0.4616  0.2830
 1224TIP3    H129783   1.927   8.135   0.721 -0.3246 -0.2326  0.0401
 1224TIP3    H229784   1.778   8.119   0.706 -0.3281 -0.7409  0.5811
 1225TIP3   OH229785   3.505   2.754   6.194 -0.0422  0.1836  0.6149
 1225TIP3    H129786   3.510   2.699   6.116 -1.3191 -0.2963  0.8503
 1225TIP3    H229787   3.412   2.757   6.215  0.0911  1.7299  1.1183
 1226TIP3   OH229788   3.020   1.506   7.091  0.3765 -0.2772 -0.2083
 1226TIP3    H129789   2.984   1.463   7.014  0.6619 -0.6218 -0.1540
 1226TIP3    H229790   2.945   1.520   7.148  0.3426 -1.1655 -0.0105
 1227TIP3   OH229791   2.939   7.963   0.365 -0.4777 -0.0521 -0.2669
 1227TIP3    H129792   2.965   7.970   0.457 -1.0932 -0.7958 -0.0334
 1227TIP3    H229793   3.020   7.982   0.316 -0.1324  0.2831  0.4153
 1228TIP3   OH229794   1.666   6.163   6.880 -0.0278  0.0022  0.1156
 1228TIP3    H129795   1.622   6.235   6.924  0.4003  0.7308 -0.6121
 1228TIP3    H229796   1.680   6.195   6.791  1.6122 -0.3492  0.2193
 1229TIP3   OH229797   4.192   0.219   0.055 -0.2943  0.4039  0.1347
 1229TIP3    H129798   4.140   0.145   0.086 -0.7933  0.7484  0.1295
 1229TIP3    H229799   4.128   0.289   0.042  0.2668  1.0278  0.7499
 1230TIP3   OH229800   5.012   4.945   0.739 -0.0906 -0.0313 -0.4603
 1230TIP3    H129801   5.018   4.986   0.826 -2.1934 -1.9984  0.7487
 1230TIP3    H229802   4.921   4.917   0.733  0.4063 -1.3616 -2.6638
 1231TIP3   OH229803   2.927   6.265   0.865  0.5471 -0.9213 -0.6042
 1231TIP3    H129804   2.989   6.282   0.936  3.1965 -1.9019 -2.5164
 1231TIP3    H229805   2.934   6.341   0.808 -1.3690 -0.2588 -0.0182
 1232TIP3   OH229806   7.238   6.712   1.062  0.4937 -0.2003  0.4043
 1232TIP3    H129807   7.280   6.767   0.996  1.1298 -0.1094  0.8777
 1232TIP3    H229808   7.246   6.761   1.144  0.5605 -0.7360  0.7284
 1233TIP3   OH229809   0.597   3.317   0.825  0.1171  0.4000 -0.1605
 1233TIP3    H129810   0.560   3.263   0.894 -0.2385  0.3179 -0.4097
 1233TIP3    H229811   0.585   3.407   0.856 -1.6271  0.4530 -0.8605
 1234TIP3   OH229812   5.452   0.171   6.997  0.4606 -0.2302 -0.5705
 1234TIP3    H129813   5.432   0.079   6.980 -1.2788 -0.1490  0.6579
 1234TIP3    H229814   5.478   0.174   7.089  1.5195  0.3891 -0.8690
 1235TIP3   OH229815   1.072   1.558   1.388  0.3567 -0.1796 -0.4317
 1235TIP3    H129816   1.127   1.584   1.314  2.1243 -0.5101  0.7090
 1235TIP3    H229817   1.093   1.621   1.457 -2.5165  1.1956 -0.6354
 1236TIP3   OH229818   7.737   6.772   1.219 -0.1908  0.4102  0.0262
 1236TIP3    H129819   7.688   6.836   1.167  0.2377  1.2428  0.6258
 1236TIP3    H229820   7.827   6.778   1.186  0.4615  2.1819  1.9514
 1237TIP3   OH229821   4.019   4.863   6.933  0.3312  0.1947 -0.1686
 1237TIP3    H129822   3.963   4.900   7.001 -2.6507 -2.4541 -0.9530
 1237TIP3    H229823   4.061   4.939   6.892  2.8763  1.9156  4.8478
 1238TIP3   OH229824   1.400   6.180   0.992  0.4747 -0.0280  0.1457
 1238TIP3    H129825   1.469   6.157   0.930 -0.3202  2.4945 -1.8579
 1238TIP3    H229826   1.405   6.275   0.999 -1.1223 -0.0142  2.0462
 1239TIP3   OH229827   6.063   5.590   7.090 -0.3967  0.1199 -0.0277
 1239TIP3    H129828   6.014   5.612   7.169 -0.1801  1.3100 -0.1959
 1239TIP3    H229829   6.008   5.528   7.044 -0.6332 -0.4122  0.9428
 1240TIP3   OH229830   0.939   3.864   1.879  0.4492 -0.3019  0.3666
 1240TIP3    H129831   0.880   3.927   1.921 -1.2732 -1.2899 -0.4912
 1240TIP3    H229832   0.930   3.785   1.932  0.6218 -0.6176 -0.0757
 1241TIP3   OH229833   6.978   3.252   0.826  0.0677  0.1044  0.5582
 1241TIP3    H129834   6.935   3.166   0.830 -0.3746  0.3453  0.9691
 1241TIP3    H229835   6.913   3.314   0.857  0.4509  0.5735  0.4467
 1242TIP3   OH229836   1.277   6.385   6.571  0.5237  0.0611 -0.4561
 1242TIP3    H129837   1.241   6.304   6.607  1.3441  0.2547  0.8742
 1242TIP3    H229838   1.206   6.449   6.580  0.6562  0.0637  0.7226
 1243TIP3   OH229839   7.715   5.276   0.264 -0.0226  0.3144 -0.1755
 1243TIP3    H129840   7.785   5.217   0.292 -0.2735 -0.3307 -0.8658
 1243TIP3    H229841   7.737   5.360   0.304  0.5108 -0.1656  0.5736
 1244TIP3   OH229842   4.095   6.784   0.154  0.8915 -0.1447 -0.3261
 1244TIP3    H129843   4.042   6.845   0.103 -1.3978 -0.6686  1.2909
 1244TIP3    H229844   4.120   6.716   0.092 -1.4528 -0.5398 -0.9212
 1245TIP3   OH229845   5.608   0.466   7.926  0.3827  0.2460  0.1107
 1245TIP3    H129846   5.583   0.534   7.865 -0.2577  1.1995  1.3887
 1245TIP3    H229847   5.695   0.492   7.956  0.9005 -0.4758 -0.7236
 1246TIP3   OH229848   5.578   1.418   1.734 -0.2186 -0.7851 -0.4848
 1246TIP3    H129849   5.557   1.383   1.821 -0.7632 -0.3149 -0.4161
 1246TIP3    H229850   5.502   1.397   1.680  0.0294 -0.8955 -0.7941
 1247TIP3   OH229851   7.899   5.371   2.275  0.5943  0.2549  0.0851
 1247TIP3    H129852   7.929   5.369   2.183 -0.6488 -2.2985 -0.3544
 1247TIP3    H229853   7.918   5.283   2.308  1.4384  1.2523  2.4872
 1248TIP3   OH229854   4.316   7.316   0.807 -0.8713 -0.4889 -0.4404
 1248TIP3    H129855   4.304   7.405   0.840 -2.5184 -1.2736  1.2583
 1248TIP3    H229856   4.365   7.271   0.876 -1.9388 -1.4377 -0.2758
 1249TIP3   OH229857   0.635   3.402   1.308  0.1714 -0.2974 -0.0062
 1249TIP3    H129858   0.663   3.413   1.217 -2.2302 -3.1250 -1.2506
 1249TIP3    H229859   0.716   3.381   1.355  1.2799 -0.3622 -1.8227
 1250TIP3   OH229860   6.256   6.390   1.280 -0.0752 -0.4877 -0.3627
 1250TIP3    H129861   6.259   6.313   1.225  0.2701 -1.9098  1.5493
 1250TIP3    H229862   6.303   6.365   1.360 -0.0670  1.6505  0.3802
 1251TIP3   OH229863   2.515   3.441   7.314 -0.5010 -0.0433  0.5987
 1251TIP3    H129864   2.560   3.369   7.357  0.7966  0.5980  0.3780
 1251TIP3    H229865   2.546   3.439   7.224  1.9551  2.5336  1.2334
 1252TIP3   OH229866   5.030   2.976   7.404 -0.2450  0.3547 -0.0555
 1252TIP3    H129867   5.030   2.977   7.308  1.0488  0.8598 -0.0665
 1252TIP3    H229868   4.938   2.975   7.428 -0.5900  0.8386 -1.2987
 1253TIP3   OH229869   7.954   1.462   7.871  0.0500  0.0148 -0.2378
 1253TIP3    H129870   7.936   1.538   7.926  0.6032 -0.2073  0.2585
 1253TIP3    H229871   8.030   1.487   7.819  1.2974 -0.7728  1.1175
 1254TIP3   OH229872   5.472   1.572   1.232  0.2375 -0.5841  0.1512
 1254TIP3    H129873   5.485   1.612   1.146  1.3450 -1.4621 -0.1147
 1254TIP3    H229874   5.561   1.551   1.262 -0.0699  0.3037  1.8122
 1255TIP3   OH229875   0.157   3.965   6.434 -0.8290 -0.2931 -0.0572
 1255TIP3    H129876   0.138   3.965   6.528  1.0602 -0.5777  0.3544
 1255TIP3    H229877   0.133   4.053   6.405 -0.8706 -0.0070  0.8091
 1256TIP3   OH229878   2.406   5.216   7.631  0.0913 -0.6507 -0.0655
 1256TIP3    H129879   2.423   5.305   7.662 -0.4520 -0.8029  0.7056
 1256TIP3    H229880   2.493   5.176   7.624  0.3173 -0.1659 -0.1092
 1257TIP3   OH229881   1.388   2.623   2.036  0.0863  0.5624  0.4558
 1257TIP3    H129882   1.322   2.556   2.020  0.0027  0.6993  0.2321
 1257TIP3    H229883   1.375   2.648   2.128 -1.4386  1.9538 -0.0923
 1258TIP3   OH229884   8.071   7.101   0.448 -0.0579 -0.6128 -1.0244
 1258TIP3    H129885   8.142   7.158   0.479  0.3013 -0.3806 -2.2071
 1258TIP3    H229886   7.995   7.126   0.501  0.3909  0.1521 -0.7278
 1259TIP3   OH229887   3.690   1.468   2.012  0.1038 -0.2448  0.1456
 1259TIP3    H129888   3.619   1.421   2.056  1.7163 -0.4007  2.7777
 1259TIP3    H229889   3.686   1.437   1.921 -2.5629 -0.9417  0.4289
 1260TIP3   OH229890   6.306   4.269   6.039  0.0140 -0.5653 -0.2327
 1260TIP3    H129891   6.309   4.342   6.101  0.3757  1.0992 -2.0695
 1260TIP3    H229892   6.393   4.230   6.043  0.5606  0.5504 -0.7915
 1261TIP3   OH229893   7.988   5.725   7.017 -0.1392  0.0455 -0.2203
 1261TIP3    H129894   8.048   5.707   7.089 -0.8906 -2.4847 -0.1244
 1261TIP3    H229895   7.932   5.647   7.013 -1.2827  0.9036 -2.3977
 1262TIP3   OH229896   3.308   2.568   0.275  0.1551  0.0642 -0.3074
 1262TIP3    H129897   3.214   2.550   0.274 -0.1103  1.0614  1.8123
 1262TIP3    H229898   3.349   2.482   0.262 -1.0449 -0.5764  0.0571
 1263TIP3   OH229899   5.991   5.089   7.934 -0.7753  0.0569 -0.0620
 1263TIP3    H129900   5.944   5.013   7.966 -0.9727  0.2309  0.0640
 1263TIP3    H229901   6.077   5.056   7.909 -0.9076 -0.2306 -0.1336
 1264TIP3   OH229902   6.727   7.600   5.787  0.2965 -0.1444  0.4839
 1264TIP3    H129903   6.634   7.577   5.795  0.5471 -1.8651 -0.9893
 1264TIP3    H229904   6.733   7.642   5.701  0.6191  1.5942  1.3180
 1265TIP3   OH229905   1.032   2.021   6.811  0.0941 -0.2773 -0.0739
 1265TIP3    H129906   1.097   1.993   6.746 -0.3651  1.4973 -1.3504
 1265TIP3    H229907   0.976   1.944   6.823  0.6054 -0.8651 -1.2506
 1266TIP3   OH229908   5.678   0.421   1.862  0.0505 -0.0605  0.0646
 1266TIP3    H129909   5.745   0.363   1.898  2.1657  1.7211 -0.7975
 1266TIP3    H229910   5.629   0.367   1.801  0.9687 -1.3007  0.3867
 1267TIP3   OH229911   2.371   0.136   7.415  0.4075  0.2205  0.2481
 1267TIP3    H129912   2.277   0.155   7.413  0.5232  0.7703 -0.8947
 1267TIP3    H229913   2.382   0.062   7.356  0.7241  0.3550  0.1354
 1268TIP3   OH229914   7.128   1.728   5.595 -0.1005 -0.3452 -0.0667
 1268TIP3    H129915   7.041   1.758   5.620  1.0508  1.8907  1.5110
 1268TIP3    H229916   7.168   1.803   5.550  0.9206 -1.4396 -1.0745
 1269TIP3   OH229917   3.159   4.165   2.148  0.2679  0.0608  0.0348
 1269TIP3    H129918   3.066   4.174   2.126 -0.1155 -1.6154  0.7740
 1269TIP3    H229919   3.204   4.220   2.085 -1.2861  1.7812  0.3372
 1270TIP3   OH229920   1.002   3.375   0.668 -0.2292 -0.5039 -0.5172
 1270TIP3    H129921   0.952   3.456   0.667  0.3871 -0.0708  0.7773
 1270TIP3    H229922   0.936   3.306   0.661 -0.9347  0.0716  0.2016
 1271TIP3   OH229923   5.301   5.889   7.339 -0.0918 -0.6564  0.0570
 1271TIP3    H129924   5.369   5.955   7.329  0.1536 -0.6893  1.3140
 1271TIP3    H229925   5.338   5.809   7.302  0.9874 -0.9311  1.6381
 1272TIP3   OH229926   5.433   4.093   2.683 -0.0829 -0.5933  0.2738
 1272TIP3    H129927   5.390   4.147   2.617 -2.1586 -1.8476  0.5132
 1272TIP3    H229928   5.383   4.012   2.684  1.6832 -1.7439  1.3734
 1273TIP3   OH229929   3.677   6.106   0.433 -0.3152 -0.1645  0.2697
 1273TIP3    H129930   3.636   6.193   0.431  0.2816  0.1321  0.8860
 1273TIP3    H229931   3.769   6.122   0.412 -0.5758 -0.8877 -1.6141
 1274TIP3   OH229932   7.165   4.815   1.519  0.3448  0.6410 -0.0421
 1274TIP3    H129933   7.081   4.807   1.474  0.8177 -1.1251 -0.7238
 1274TIP3    H229934   7.194   4.904   1.502 -1.2650  1.2084  0.0155
 1275TIP3   OH229935   1.621   4.595   6.509 -0.3288 -0.4633 -0.2401
 1275TIP3    H129936   1.547   4.543   6.539  0.4974 -0.9538  1.0509
 1275TIP3    H229937   1.613   4.678   6.556 -0.7713  0.0121 -1.1133
 1276TIP3   OH229938   7.205   1.727   2.102 -0.0897 -0.1890  0.1011
 1276TIP3    H129939   7.297   1.704   2.115  1.2588  1.8440 -3.9234
 1276TIP3    H229940   7.172   1.659   2.042 -1.4561 -1.0950  1.7642
 1277TIP3   OH229941   7.154   7.964   1.120  0.2220  0.7522  0.5420
 1277TIP3    H129942   7.092   8.024   1.080 -0.5681  0.3054  1.0629
 1277TIP3    H229943   7.223   8.021   1.156 -0.2672  1.3130  0.6045
 1278TIP3   OH229944   2.733   0.740   1.484 -0.3856  0.4346  0.4305
 1278TIP3    H129945   2.640   0.758   1.472 -0.1447  1.0492 -0.5558
 1278TIP3    H229946   2.778   0.810   1.438  0.5785 -0.8782 -0.7026
 1279TIP3   OH229947   6.011   6.658   6.309 -0.2610  0.5336  0.2538
 1279TIP3    H129948   5.979   6.637   6.221  1.7224  1.5354 -0.7544
 1279TIP3    H229949   5.952   6.727   6.340 -0.6863  0.5069 -0.4816
 1280TIP3   OH229950   0.361   2.171   1.077  0.1783  0.0783 -0.6464
 1280TIP3    H129951   0.419   2.237   1.115  0.0770  0.5275 -1.2569
 1280TIP3    H229952   0.307   2.219   1.015 -1.3222 -0.2150  0.3731
 1281TIP3   OH229953   2.777   1.213   6.002  0.6124 -0.4074 -0.3709
 1281TIP3    H129954   2.747   1.167   6.080 -0.0950  0.1136 -0.3290
 1281TIP3    H229955   2.777   1.147   5.933 -1.5019 -0.2339 -0.5795
 1282TIP3   OH229956   6.519   5.516   2.204  0.5520 -0.1070 -0.3969
 1282TIP3    H129957   6.483   5.489   2.289  0.1536 -0.4056 -0.6561
 1282TIP3    H229958   6.530   5.611   2.211 -2.8992  0.4853 -1.2491
 1283TIP3   OH229959   1.792   0.697   7.912  0.0315 -0.4738 -0.0266
 1283TIP3    H129960   1.717   0.705   7.970  0.2501 -0.2473  0.2330
 1283TIP3    H229961   1.856   0.647   7.963 -0.1766 -1.2326 -0.4864
 1284TIP3   OH229962   7.972   4.670   6.652 -0.2673 -0.4187  0.8340
 1284TIP3    H129963   7.997   4.637   6.566 -0.8115  0.3100  0.3802
 1284TIP3    H229964   8.049   4.653   6.708  2.7767  4.4423 -1.1751
 1285TIP3   OH229965   1.971   7.621   6.246 -0.1522  0.2309 -0.6360
 1285TIP3    H129966   1.988   7.580   6.330 -0.6065  2.8533  0.8431
 1285TIP3    H229967   1.899   7.570   6.208  0.2183 -1.1270  0.4295
 1286TIP3   OH229968   1.746   2.483   0.967  0.1595  0.7041  0.1558
 1286TIP3    H129969   1.655   2.506   0.984 -0.5205 -1.1555 -0.7305
 1286TIP3    H229970   1.758   2.397   1.007  1.5437  0.9141  0.2651
 1287TIP3   OH229971   0.893   4.205   6.701 -0.5606  0.2352  0.2123
 1287TIP3    H129972   0.914   4.129   6.647 -1.3384 -0.2630  0.5768
 1287TIP3    H229973   0.968   4.263   6.693  0.2412 -0.7781  0.2756
 1288TIP3   OH229974   4.614   1.808   2.535  0.3077  0.5408 -0.6131
 1288TIP3    H129975   4.550   1.793   2.466 -0.5282  2.0535 -0.2125
 1288TIP3    H229976   4.638   1.721   2.565 -2.7314 -0.1324  0.2497
 1289TIP3   OH229977   2.782   6.279   6.481  0.5526 -0.3744 -0.5717
 1289TIP3    H129978   2.876   6.279   6.498  0.3960  0.9862  0.5174
 1289TIP3    H229979   2.742   6.252   6.564 -0.0437  0.0680 -0.7053
 1290TIP3   OH229980   6.322   3.509   7.397 -0.2339  0.2592 -0.3954
 1290TIP3    H129981   6.269   3.528   7.474  0.6884  0.7529  0.1330
 1290TIP3    H229982   6.399   3.465   7.431 -2.1907 -4.7212 -1.5260
 1291TIP3   OH229983   5.917   0.564   0.567 -0.0500  0.0806  0.5045
 1291TIP3    H129984   5.925   0.563   0.662 -1.0416  0.8298  0.6224
 1291TIP3    H229985   5.862   0.488   0.546 -0.2043  0.1712  0.5791
 1292TIP3   OH229986   7.833   0.601   0.007  0.3552 -0.4507 -0.9302
 1292TIP3    H129987   7.783   0.537   0.057  0.3422 -0.7403 -1.3128
 1292TIP3    H229988   7.923   0.570   0.013  0.2213 -1.0612 -1.9475
 1293TIP3   OH229989   5.883   5.942   6.832 -0.0401 -0.3517  0.5153
 1293TIP3    H129990   5.805   5.886   6.833 -0.8613  0.7709  1.5951
 1293TIP3    H229991   5.910   5.943   6.740 -2.2521  0.5241 -0.1896
 1294TIP3   OH229992   0.233   5.054   7.441  0.1846 -0.2230  0.0154
 1294TIP3    H129993   0.151   5.103   7.444 -1.2446 -2.4331  2.2729
 1294TIP3    H229994   0.301   5.119   7.459 -0.9959  1.7080 -2.0763
 1295TIP3   OH229995   6.019   1.954   1.822 -0.2695 -0.2550  0.4146
 1295TIP3    H129996   5.996   1.989   1.908 -0.8236 -1.4252  0.7638
 1295TIP3    H229997   6.042   1.863   1.839  3.2165  0.3664 -0.1159
 1296TIP3   OH229998   5.326   2.088   7.413 -0.1205  0.2425 -0.3991
 1296TIP3    H129999   5.245   2.074   7.364 -0.2563 -0.8131  0.0907
 1296TIP3    H230000   5.314   2.173   7.456 -0.5727  0.5253 -1.0795
 1297TIP3   OH230001   0.886   3.144   1.617 -0.3977 -0.0553 -0.2265
 1297TIP3    H130002   0.867   3.232   1.587  0.3602  0.0855 -0.3274
 1297TIP3    H230003   0.967   3.120   1.571  2.3152  1.1461  3.4381
 1298TIP3   OH230004   3.587   3.744   2.283 -0.3747  0.1795  0.6047
 1298TIP3    H130005   3.675   3.709   2.274 -0.3207  0.1635  1.1332
 1298TIP3    H230006   3.544   3.726   2.200 -0.1399 -0.5411  0.6401
 1299TIP3   OH230007   7.704   6.358   6.952 -0.2933  0.5061 -0.4684
 1299TIP3    H130008   7.677   6.296   6.884 -0.0802 -1.2158  0.9444
 1299TIP3    H230009   7.770   6.310   7.002  0.8615  2.3905 -0.1136
 1300TIP3   OH230010   7.400   2.787   0.897 -0.5405 -0.4686 -0.3289
 1300TIP3    H130011   7.449   2.798   0.979  0.4079  0.4377 -0.9991
 1300TIP3    H230012   7.357   2.871   0.883  1.3759  0.2923 -2.0618
 1301TIP3   OH230013   0.093   2.527   0.108  0.0035 -0.2265  0.5411
 1301TIP3    H130014   0.166   2.523   0.170  0.0936  0.3633  0.4798
 1301TIP3    H230015   0.017   2.547   0.162  0.3913  2.3175  0.2784
 1302TIP3   OH230016   4.257   1.458   1.122  0.3127  0.1515 -0.3020
 1302TIP3    H130017   4.304   1.523   1.069  0.9801 -1.0419 -1.2327
 1302TIP3    H230018   4.258   1.378   1.068 -1.8488 -0.2210  0.1292
 1303TIP3   OH230019   5.998   7.336   0.315 -0.2892  0.4597 -0.4592
 1303TIP3    H130020   5.959   7.314   0.399 -0.9748  1.7729 -0.4056
 1303TIP3    H230021   6.081   7.378   0.337  0.4657 -0.9356 -0.5258
 1304TIP3   OH230022   2.675   7.352   5.193  0.6725 -0.6714 -0.1852
 1304TIP3    H130023   2.674   7.259   5.213  1.7554 -0.4612  0.9863
 1304TIP3    H230024   2.759   7.383   5.225 -0.2655  0.9861  0.8338
 1305TIP3   OH230025   7.017   1.018   6.563 -0.1452 -0.4381 -0.0672
 1305TIP3    H130026   6.931   1.001   6.601 -0.0214 -0.5426  0.1720
 1305TIP3    H230027   7.061   1.073   6.628 -1.0658  2.1029 -1.4781
 1306TIP3   OH230028   2.340   3.642   6.251 -0.1011 -0.1641  0.4957
 1306TIP3    H130029   2.425   3.600   6.261 -0.9987 -1.9249  1.2831
 1306TIP3    H230030   2.316   3.629   6.159  1.3522  2.2641 -0.3332
 1307TIP3   OH230031   1.474   3.069   0.406 -0.0479  0.4042 -0.2936
 1307TIP3    H130032   1.446   2.991   0.454 -1.3158  1.2829  0.4640
 1307TIP3    H230033   1.549   3.040   0.354 -0.0254 -1.1214  0.5410
 1308TIP3   OH230034   3.255   2.037   6.448 -0.2775 -0.1380  0.2624
 1308TIP3    H130035   3.313   2.112   6.464 -1.5760  1.0115 -0.1781
 1308TIP3    H230036   3.268   2.017   6.355 -1.1825  0.6933 -0.0654
 1309TIP3   OH230037   0.164   5.474   7.094 -0.0540 -0.0216  0.1452
 1309TIP3    H130038   0.126   5.473   7.007  0.0112  1.1122  0.0899
 1309TIP3    H230039   0.258   5.460   7.080  0.3465  2.4544 -0.2328
 1310TIP3   OH230040   5.689   6.206   1.387  0.3360  0.2498  0.2657
 1310TIP3    H130041   5.596   6.186   1.377  0.7920 -1.5971 -0.8818
 1310TIP3    H230042   5.709   6.184   1.478 -0.1440 -0.3100  0.2370
 1311TIP3   OH230043   1.667   3.136   1.044 -0.1029  0.6236  0.3245
 1311TIP3    H130044   1.691   3.115   1.134  0.6321 -0.5764 -0.1232
 1311TIP3    H230045   1.740   3.104   0.991 -1.8443 -1.5879 -0.9519
 1312TIP3   OH230046   0.002   7.943   0.477 -0.7260  0.0631 -0.6222
 1312TIP3    H130047   0.002   7.875   0.410  0.4237 -1.0039  0.3928
 1312TIP3    H230048   0.056   8.013   0.440  0.9692 -1.0471 -0.3693
 1313TIP3   OH230049   7.986   1.362   5.527 -0.0062  0.0199 -0.2031
 1313TIP3    H130050   8.060   1.422   5.511  0.0698  0.2866  1.0562
 1313TIP3    H230051   7.976   1.314   5.445 -1.2235  2.9739 -1.9478
 1314TIP3   OH230052   1.647   2.458   7.118  0.0401 -0.2910 -0.3404
 1314TIP3    H130053   1.638   2.472   7.024 -2.8355 -0.9634 -0.2487
 1314TIP3    H230054   1.607   2.535   7.158  2.6421  0.7720  0.4564
 1315TIP3   OH230055   5.715   7.766   5.848  0.2388 -0.1925 -0.4725
 1315TIP3    H130056   5.626   7.742   5.823 -1.0414  0.7676  2.7158
 1315TIP3    H230057   5.706   7.849   5.895  3.0793  0.8145 -1.4862
 1316TIP3   OH230058   7.453   4.634   7.871 -0.2836  0.3700 -0.7468
 1316TIP3    H130059   7.463   4.599   7.959 -0.0013  2.5443  0.1440
 1316TIP3    H230060   7.536   4.677   7.852 -1.1220  1.9144 -1.1165
 1317TIP3   OH230061   0.096   4.945   5.587  0.3598  0.3856 -0.0927
 1317TIP3    H130062   0.152   4.959   5.510 -1.2976  0.0408 -1.4175
 1317TIP3    H230063   0.117   5.018   5.645  1.2040  1.0268 -1.1581
 1318TIP3   OH230064   6.829   4.654   1.559  0.5811 -0.5172  0.5070
 1318TIP3    H130065   6.860   4.571   1.595  1.9430 -0.1555  0.2383
 1318TIP3    H230066   6.865   4.657   1.470 -0.5528 -0.2216  0.0470
 1319TIP3   OH230067   6.046   6.182   1.001 -0.8318 -0.4092 -0.7217
 1319TIP3    H130068   6.075   6.134   1.079  3.2532  0.1730 -1.6237
 1319TIP3    H230069   6.023   6.269   1.034  1.8576  0.1769 -0.0951
 1320TIP3   OH230070   7.588   5.868   1.697 -0.0979 -0.3123 -0.4170
 1320TIP3    H130071   7.507   5.919   1.707  0.1109  0.1024 -0.8356
 1320TIP3    H230072   7.642   5.897   1.771 -1.1657 -2.2192  1.2135
 1321TIP3   OH230073   5.319   4.841   6.302  0.9059  0.1630  0.2422
 1321TIP3    H130074   5.317   4.899   6.378  1.6980  0.1475  0.2874
 1321TIP3    H230075   5.227   4.824   6.282  0.6792 -0.7161  1.8765
 1322TIP3   OH230076   2.543   7.595   6.469 -0.3109  0.4050 -0.2562
 1322TIP3    H130077   2.495   7.678   6.468 -1.3198 -0.1696 -0.2095
 1322TIP3    H230078   2.516   7.552   6.550 -2.0535 -1.2404 -1.6061
 1323TIP3   OH230079   7.336   0.564   7.505  0.0510  0.1314 -0.1842
 1323TIP3    H130080   7.348   0.631   7.573  0.2099 -0.3575  0.2850
 1323TIP3    H230081   7.372   0.603   7.426 -0.6151  0.9126 -0.1061
 1324TIP3   OH230082   4.980   6.071   6.177  0.3264 -0.6042  0.3042
 1324TIP3    H130083   5.037   5.998   6.202  2.8059  0.7578 -1.0054
 1324TIP3    H230084   5.003   6.141   6.237 -0.0142 -0.0372 -0.2234
 1325TIP3   OH230085   2.384   1.139   0.732 -0.6312  0.2265  0.4971
 1325TIP3    H130086   2.292   1.164   0.735 -0.5479  0.6157  0.0709
 1325TIP3    H230087   2.431   1.223   0.731 -0.2197  0.0388  1.9156
 1326TIP3   OH230088   5.853   0.603   7.933  0.0438 -0.1387 -0.1510
 1326TIP3    H130089   5.859   0.694   7.961 -1.7986 -0.2834  0.8274
 1326TIP3    H230090   5.900   0.554   8.001  1.5507  0.0756 -0.9785
 1327TIP3   OH230091   4.550   3.689   6.828 -0.0308 -0.1418  0.6392
 1327TIP3    H130092   4.639   3.653   6.831 -0.4742 -1.2936  0.2880
 1327TIP3    H230093   4.549   3.754   6.898  1.2506  0.2681  0.3095
 1328TIP3   OH230094   7.944   4.946   0.155  0.3913  0.0480  0.6671
 1328TIP3    H130095   7.970   4.879   0.091  1.9365  0.9594  0.2959
 1328TIP3    H230096   7.913   5.020   0.102 -0.7113 -0.1028  1.0631
 1329TIP3   OH230097   1.504   6.256   1.259 -0.2691  0.2078 -0.7983
 1329TIP3    H130098   1.536   6.174   1.221  2.1095 -0.6094  2.4419
 1329TIP3    H230099   1.578   6.316   1.252 -1.0064  1.1606 -0.6198
 1330TIP3   OH230100   0.950   3.592   7.258  0.7627  0.4051 -0.0675
 1330TIP3    H130101   0.928   3.533   7.186  0.3889  0.0443  0.3385
 1330TIP3    H230102   1.034   3.559   7.290  0.5611  0.0982  0.1499
 1331TIP3   OH230103   5.270   6.705   0.851  0.6138 -0.5813  0.0325
 1331TIP3    H130104   5.218   6.679   0.775  1.2833 -1.4538 -0.1566
 1331TIP3    H230105   5.206   6.729   0.918  0.0145  1.5336 -1.2179
 1332TIP3   OH230106   0.741   1.276   1.005 -0.1336  0.4864 -0.6722
 1332TIP3    H130107   0.817   1.311   1.052 -0.6128  1.0698 -0.3080
 1332TIP3    H230108   0.703   1.212   1.066 -1.2537  1.8651  0.1329
 1333TIP3   OH230109   5.782   4.165   0.760  0.4125 -0.0611  0.5715
 1333TIP3    H130110   5.796   4.251   0.801 -1.2731 -0.1936  1.5026
 1333TIP3    H230111   5.688   4.160   0.747  0.4483 -1.9326  0.8706
 1334TIP3   OH230112   1.477   0.454   6.999 -0.3114 -0.1777  0.2415
 1334TIP3    H130113   1.441   0.503   6.925  2.1850 -0.1313 -1.0550
 1334TIP3    H230114   1.424   0.374   7.002 -2.4254  1.1381  0.4312
 1335TIP3   OH230115   7.766   3.928   6.107  0.1878 -0.4716 -0.1169
 1335TIP3    H130116   7.725   3.874   6.175 -0.6396  0.4555  0.1457
 1335TIP3    H230117   7.697   3.988   6.079  1.2588  0.9114  0.0918
 1336TIP3   OH230118   7.599   0.147   6.401 -0.1234  0.0596  0.0448
 1336TIP3    H130119   7.677   0.139   6.347 -0.0572  1.8365 -0.1858
 1336TIP3    H230120   7.529   0.111   6.347  0.2823 -0.0573 -0.4087
 1337TIP3   OH230121   6.636   3.682   1.855  0.2419 -0.2729 -0.6125
 1337TIP3    H130122   6.648   3.772   1.822 -2.0190  0.1147 -0.5470
 1337TIP3    H230123   6.669   3.685   1.945 -0.4279  0.6936 -0.3848
 1338TIP3   OH230124   0.663   4.106   6.605  0.2117 -0.1834  0.2458
 1338TIP3    H130125   0.744   4.157   6.610  0.2353 -0.3179  1.4752
 1338TIP3    H230126   0.653   4.068   6.692 -0.8422 -0.6870 -0.0810
 1339TIP3   OH230127   2.627   1.688   0.317 -0.4293  0.3919  0.4860
 1339TIP3    H130128   2.654   1.770   0.358  0.8571 -0.6593  1.9003
 1339TIP3    H230129   2.576   1.714   0.241  1.0224  2.5219  0.1464
 1340TIP3   OH230130   5.079   1.023   6.434 -0.5012  0.2409  0.3118
 1340TIP3    H130131   5.021   1.035   6.509 -2.5217 -2.7738 -0.5787
 1340TIP3    H230132   5.029   1.058   6.360  0.3736  0.8389 -0.0116
 1341TIP3   OH230133   3.197   1.397   5.526 -0.3859 -0.0688  0.2172
 1341TIP3    H130134   3.287   1.410   5.554  0.1109 -0.8499 -0.9404
 1341TIP3    H230135   3.144   1.423   5.602  0.8097  0.0880  1.0212
 1342TIP3   OH230136   3.834   6.317   7.720  0.1119  0.7705  0.4572
 1342TIP3    H130137   3.927   6.336   7.731  0.0330  0.5872  1.5516
 1342TIP3    H230138   3.791   6.367   7.790 -0.5989  0.7505  0.0465
 1343TIP3   OH230139   5.711   2.216   0.104  0.6882  0.9879  0.1047
 1343TIP3    H130140   5.679   2.127   0.115 -0.0870  1.4912  2.6045
 1343TIP3    H230141   5.631   2.269   0.099  1.0746  1.8613  2.3204
 1344TIP3   OH230142   4.094   3.645   7.313  0.5405  0.2229 -0.0785
 1344TIP3    H130143   4.133   3.694   7.241  1.0934 -0.4579 -0.2571
 1344TIP3    H230144   4.128   3.687   7.392  0.0411  0.8833 -0.2098
 1345TIP3   OH230145   4.558   7.840   7.615 -0.2130  0.2230 -0.3266
 1345TIP3    H130146   4.560   7.794   7.531 -0.5260  0.1347 -0.2857
 1345TIP3    H230147   4.641   7.815   7.657 -0.1993  0.0152 -0.4729
 1346TIP3   OH230148   7.166   6.602   2.316 -0.2066 -0.1064  0.2217
 1346TIP3    H130149   7.158   6.545   2.392 -0.7877  0.6166  0.7265
 1346TIP3    H230150   7.144   6.546   2.241 -1.8254 -0.3120  0.7984
 1347TIP3   OH230151   6.422   6.104   1.871  0.7850  0.2019 -0.0887
 1347TIP3    H130152   6.434   6.019   1.828 -0.8788 -0.5805  0.8888
 1347TIP3    H230153   6.435   6.086   1.964 -0.2913  0.8448  0.2078
 1348TIP3   OH230154   7.053   6.264   1.070 -0.3718 -0.4998 -0.4349
 1348TIP3    H130155   7.099   6.265   1.154 -0.3874  0.6278 -0.4273
 1348TIP3    H230156   7.112   6.216   1.011  1.4759  1.9921 -0.7604
 1349TIP3   OH230157   3.487   7.456   6.089  0.6554  0.0873 -0.4571
 1349TIP3    H130158   3.541   7.449   6.011  0.4298 -0.9851 -0.5285
 1349TIP3    H230159   3.435   7.376   6.090  1.8596 -0.7396  1.7053
 1350TIP3   OH230160   0.848   5.560   6.141  0.0288 -0.8287 -0.1715
 1350TIP3    H130161   0.931   5.605   6.158 -1.4486  2.5177 -1.0845
 1350TIP3    H230162   0.822   5.588   6.054 -2.7370 -0.5804  0.6314
 1351TIP3   OH230163   4.613   7.647   1.400  0.0466 -0.4367  0.5754
 1351TIP3    H130164   4.623   7.634   1.494  1.3929  2.2856  0.8936
 1351TIP3    H230165   4.536   7.703   1.391 -0.8771 -1.7479 -0.1028
 1352TIP3   OH230166   3.821   0.297   7.645 -0.1840 -0.4025 -0.4917
 1352TIP3    H130167   3.813   0.373   7.702  2.0257  0.5297 -1.2998
 1352TIP3    H230168   3.796   0.223   7.700  0.8701  0.5604  1.3903
 1353TIP3   OH230169   6.904   2.370   0.905 -0.2122  0.5576  0.6754
 1353TIP3    H130170   6.848   2.324   0.967 -1.1875  1.9157  0.8491
 1353TIP3    H230171   6.958   2.428   0.960  0.6599  0.0050  0.4278
 1354TIP3   OH230172   5.123   7.060   0.647  0.2616  0.4514 -0.8633
 1354TIP3    H130173   5.099   7.144   0.687  0.9261  1.6094 -2.7475
 1354TIP3    H230174   5.078   7.061   0.562 -1.3644 -2.0483 -0.1257
 1355TIP3   OH230175   7.071   1.957   6.386  0.1231  0.3787  0.4085
 1355TIP3    H130176   7.113   2.016   6.449 -1.6688 -0.9305  3.0470
 1355TIP3    H230177   7.017   2.015   6.332 -0.8834  1.3766  2.3318
 1356TIP3   OH230178   5.395   2.609   6.501  0.0906 -0.3335 -0.3673
 1356TIP3    H130179   5.317   2.587   6.450  0.2438  0.9876 -1.2328
 1356TIP3    H230180   5.397   2.705   6.500 -0.5439 -0.1514  3.1559
 1357TIP3   OH230181   2.576   2.881   0.885  0.2408 -0.6296  0.5123
 1357TIP3    H130182   2.594   2.893   0.978  0.4490 -0.1114  0.4080
 1357TIP3    H230183   2.556   2.969   0.853  1.9798 -0.4962 -0.3259
 1358TIP3   OH230184   0.122   6.147   0.404 -0.7566 -0.0571 -0.6695
 1358TIP3    H130185   0.123   6.143   0.500  0.6047  0.3094 -0.6486
 1358TIP3    H230186   0.123   6.055   0.376  3.6866 -0.3857 -0.2541
 1359TIP3   OH230187   6.434   5.566   0.052  0.2238  0.3520 -0.1606
 1359TIP3    H130188   6.459   5.558   0.144  0.0386  3.2026  0.2557
 1359TIP3    H230189   6.512   5.599   0.008  0.0517 -0.1482 -0.8684
 1360TIP3   OH230190   0.738   6.002   2.705 -0.4259 -0.1855 -0.4170
 1360TIP3    H130191   0.799   6.060   2.660 -1.5233  0.9486 -0.5047
 1360TIP3    H230192   0.708   5.941   2.637 -0.1906 -0.0719 -0.6219
 1361TIP3   OH230193   6.326   4.759   1.457  0.4935 -0.6406 -0.2420
 1361TIP3    H130194   6.316   4.818   1.532 -0.0091 -0.6344 -0.3092
 1361TIP3    H230195   6.420   4.761   1.437  0.4521  0.3516 -0.4081
 1362TIP3   OH230196   7.764   5.630   1.448  0.3664 -0.4517 -0.1412
 1362TIP3    H130197   7.684   5.676   1.423  0.2469 -1.4276 -1.7241
 1362TIP3    H230198   7.757   5.545   1.406  1.8037 -0.9223  0.4912
 1363TIP3   OH230199   1.860   3.384   0.216 -0.1897 -0.1861 -0.9082
 1363TIP3    H130200   1.889   3.295   0.196 -0.1763 -0.5241  0.5347
 1363TIP3    H230201   1.805   3.374   0.293 -0.2418  1.0590 -0.7745
 1364TIP3   OH230202   0.993   3.213   7.637  0.2763  0.2255 -0.3061
 1364TIP3    H130203   1.037   3.138   7.597  0.9246 -0.6869  1.9490
 1364TIP3    H230204   0.909   3.219   7.590  1.3288 -0.1660 -2.3520
 1365TIP3   OH230205   4.059   4.186   0.888 -0.1507  0.4505  0.0826
 1365TIP3    H130206   4.141   4.138   0.874 -0.7592 -0.9350  0.9479
 1365TIP3    H230207   4.076   4.274   0.854  1.2858 -0.1453 -0.8555
 1366TIP3   OH230208   5.875   3.881   6.553  0.1116  0.0891  0.2394
 1366TIP3    H130209   5.822   3.961   6.552 -2.4432 -1.4431  1.5409
 1366TIP3    H230210   5.883   3.857   6.461 -2.6707 -0.2424 -0.0186
 1367TIP3   OH230211   0.689   6.578   0.198  0.6213 -0.4358  0.4870
 1367TIP3    H130212   0.676   6.500   0.143 -0.5144 -0.0208  0.1372
 1367TIP3    H230213   0.767   6.620   0.162  0.9436 -1.1342  0.3516
 1368TIP3   OH230214   7.372   4.359   1.698  0.8190  0.1583  0.7483
 1368TIP3    H130215   7.393   4.344   1.790  0.0793 -0.4281  0.8252
 1368TIP3    H230216   7.309   4.431   1.700 -3.9159 -3.4985  1.2691
 1369TIP3   OH230217   1.256   0.400   6.578  0.4263 -0.0358  0.2046
 1369TIP3    H130218   1.161   0.412   6.571  0.3037 -0.3013  1.1906
 1369TIP3    H230219   1.282   0.460   6.648  1.0121  0.1508 -0.1692
 1370TIP3   OH230220   5.753   1.516   1.288 -0.2006  0.3366  0.4342
 1370TIP3    H130221   5.785   1.567   1.214  0.2685  0.4685  0.7233
 1370TIP3    H230222   5.801   1.550   1.364  0.5369 -0.8898  0.5571
 1371TIP3   OH230223   4.699   1.720   6.981  0.7482  0.5603 -0.2320
 1371TIP3    H130224   4.741   1.746   7.064  1.4884  0.7974 -0.6690
 1371TIP3    H230225   4.606   1.713   7.003  1.1400 -1.2369  1.0874
 1372TIP3   OH230226   7.029   1.009   0.293  0.4539  0.7609  0.2247
 1372TIP3    H130227   7.058   0.931   0.247  3.0665  1.3683  0.7091
 1372TIP3    H230228   6.991   1.064   0.224 -0.5904 -0.4965 -0.2608
 1373TIP3   OH230229   4.990   6.903   5.834 -0.5190 -0.0518  0.0590
 1373TIP3    H130230   4.937   6.961   5.888  0.7300 -0.5332  1.9188
 1373TIP3    H230231   4.979   6.936   5.745 -1.0629  2.0677  0.8499
 1374TIP3   OH230232   2.863   0.252   5.558 -0.7854  0.5128  1.3674
 1374TIP3    H130233   2.939   0.230   5.504 -2.0833  2.8129 -1.7034
 1374TIP3    H230234   2.891   0.329   5.608 -0.7766  0.6889  1.0889
 1375TIP3   OH230235   8.098   1.471   5.862  0.8010  0.5043  0.1663
 1375TIP3    H130236   8.153   1.409   5.815  0.1607 -0.5156  0.7332
 1375TIP3    H230237   8.101   1.443   5.953 -2.0579 -0.7283 -0.0081
 1376TIP3   OH230238   1.965   4.830   1.003 -0.0672  0.1243  0.3735
 1376TIP3    H130239   2.007   4.768   0.943  1.2363  0.3381  1.0186
 1376TIP3    H230240   1.965   4.913   0.955  2.2121  0.6220  1.0885
 1377TIP3   OH230241   2.128   7.243   0.568  0.2966  0.1747 -0.7285
 1377TIP3    H130242   2.066   7.283   0.630 -0.5164  1.9257 -2.5391
 1377TIP3    H230243   2.117   7.149   0.581 -1.9466  0.4446 -0.1919
 1378TIP3   OH230244   4.154   5.028   0.224 -0.2475 -0.1347 -0.4918
 1378TIP3    H130245   4.119   4.956   0.276  1.3994 -0.9299 -0.4313
 1378TIP3    H230246   4.133   5.005   0.134 -2.0083  0.6377 -0.3341
 1379TIP3   OH230247   0.758   7.243   0.892  0.3677 -0.1283 -0.6419
 1379TIP3    H130248   0.793   7.217   0.807  0.9055 -1.8569  0.0560
 1379TIP3    H230249   0.734   7.160   0.934 -0.1664  0.7074  0.7668
 1380TIP3   OH230250   5.920   6.615   7.328 -0.4618 -0.2530 -0.5069
 1380TIP3    H130251   6.010   6.593   7.303 -0.1327  0.1496  0.3042
 1380TIP3    H230252   5.871   6.535   7.312 -0.0256 -0.3876 -1.2447
 1381TIP3   OH230253   3.984   5.332   1.107 -0.2974  0.3352  0.0189
 1381TIP3    H130254   3.943   5.333   1.021 -0.9498 -0.9549  0.2957
 1381TIP3    H230255   4.072   5.367   1.092 -0.5568  0.5544 -1.0706
 1382TIP3   OH230256   1.789   3.884   1.602 -0.0206  0.2612 -0.2596
 1382TIP3    H130257   1.845   3.834   1.542 -0.7318  0.9120 -1.5014
 1382TIP3    H230258   1.766   3.963   1.554 -1.9130  0.0735  0.2527
 1383TIP3   OH230259   5.917   7.875   1.177 -0.2779 -0.1612  0.3266
 1383TIP3    H130260   6.010   7.895   1.170 -0.2198 -0.7962 -0.8960
 1383TIP3    H230261   5.873   7.955   1.147 -0.1266  0.0414  0.6422
 1384TIP3   OH230262   2.753   1.313   1.140 -0.6153 -0.3167 -0.0563
 1384TIP3    H130263   2.689   1.302   1.069 -2.5969  1.1001  1.4021
 1384TIP3    H230264   2.700   1.327   1.218  1.4779 -2.0788  1.8346
 1385TIP3   OH230265   0.492   3.080   1.992  0.0083  0.0024 -0.3987
 1385TIP3    H130266   0.489   3.050   2.083 -0.1515  2.0244  0.3054
 1385TIP3    H230267   0.408   3.123   1.978  0.9864  1.9454 -0.6482
 1386TIP3   OH230268   7.425   6.688   0.447  0.9170  0.2190 -0.3912
 1386TIP3    H130269   7.421   6.645   0.362  1.0639 -0.3979 -0.0862
 1386TIP3    H230270   7.480   6.631   0.501 -0.5655 -0.3011  0.6410
 1387TIP3   OH230271   2.243   0.198   1.150  0.1972  0.2438 -0.9194
 1387TIP3    H130272   2.258   0.182   1.244 -0.1219  0.6851 -0.7890
 1387TIP3    H230273   2.218   0.291   1.146 -1.5661 -0.2090 -1.2202
 1388TIP3   OH230274   6.196   5.023   6.996 -0.0695  0.4127 -0.2058
 1388TIP3    H130275   6.145   5.057   7.070  0.7807 -0.8244  0.9988
 1388TIP3    H230276   6.271   5.082   6.991 -1.0356  1.6218 -1.3300
 1389TIP3   OH230277   8.023   0.759   7.273  0.1276 -0.5743  0.1252
 1389TIP3    H130278   7.948   0.702   7.289 -0.5303  0.4326  0.7660
 1389TIP3    H230279   7.997   0.814   7.200 -0.3447  0.7116  1.2155
 1390TIP3   OH230280   4.775   2.626   7.338  0.7416 -0.4423  0.3561
 1390TIP3    H130281   4.739   2.630   7.249  3.1747 -0.4894 -0.7143
 1390TIP3    H230282   4.796   2.533   7.351 -1.0247 -0.7098  1.6520
 1391TIP3   OH230283   2.869   0.665   7.856 -0.2356 -0.2105 -0.1376
 1391TIP3    H130284   2.939   0.728   7.869 -0.3079 -0.1019 -0.2786
 1391TIP3    H230285   2.906   0.582   7.888  0.5981 -0.5334 -1.8119
 1392TIP3   OH230286   1.855   7.004   6.926  0.6385 -0.0144  0.1138
 1392TIP3    H130287   1.835   7.064   6.854 -0.0173  1.5018  1.4805
 1392TIP3    H230288   1.931   7.045   6.969 -1.3586  1.3475  2.5907
 1393TIP3   OH230289   5.461   2.969   7.458 -0.1466  0.2795  0.2806
 1393TIP3    H130290   5.421   2.888   7.489 -0.7110  0.1157 -0.8332
 1393TIP3    H230291   5.388   3.022   7.427  0.0891  1.7025  1.9892
 1394TIP3   OH230292   5.819   3.438   1.153  0.7573  0.3012  0.3778
 1394TIP3    H130293   5.754   3.413   1.219  0.4794  0.9595  0.3579
 1394TIP3    H230294   5.871   3.506   1.195  1.0302  0.2228  0.1657
 1395TIP3   OH230295   2.095   0.298   0.843 -0.2664 -0.2938 -0.7566
 1395TIP3    H130296   2.129   0.387   0.855  0.5235 -0.4728 -1.5316
 1395TIP3    H230297   2.000   0.310   0.837 -0.2399  0.3889  0.0345
 1396TIP3   OH230298   3.955   3.806   5.606  0.0695  0.2460 -0.2313
 1396TIP3    H130299   3.995   3.893   5.617 -0.8213  0.6640 -0.2252
 1396TIP3    H230300   3.861   3.823   5.608 -0.1232 -0.8775  1.0026
 1397TIP3   OH230301   2.764   2.306   7.508  0.3757 -0.0610  0.2171
 1397TIP3    H130302   2.853   2.291   7.477  0.3204  0.4555 -0.2014
 1397TIP3    H230303   2.745   2.230   7.564  0.2802 -1.2957 -1.4081
 1398TIP3   OH230304   4.288   8.083   5.801 -0.0823  0.4241  0.2286
 1398TIP3    H130305   4.221   8.014   5.799  0.6412 -0.3965  1.9151
 1398TIP3    H230306   4.264   8.142   5.730 -1.9385 -0.4510  0.0688
 1399TIP3   OH230307   3.950   0.074   6.533  0.0659  0.5544 -0.5950
 1399TIP3    H130308   3.928  -0.016   6.511  0.0953  0.6594 -1.0747
 1399TIP3    H230309   3.984   0.070   6.622 -0.2692  0.1454 -0.4855
 1400TIP3   OH230310   1.311   5.874   7.595  0.2816 -0.0967 -0.1811
 1400TIP3    H130311   1.263   5.957   7.596  2.6248  1.3533 -1.4611
 1400TIP3    H230312   1.371   5.879   7.669  1.1077 -0.2125 -0.8272
 1401TIP3   OH230313   4.373   0.395   0.187  0.2863  0.0288  0.3861
 1401TIP3    H130314   4.299   0.344   0.154 -1.2780  1.1148  2.0115
 1401TIP3    H230315   4.332   0.471   0.230  2.4347  1.7537 -0.4227
 1402TIP3   OH230316   0.628   2.355   6.546  0.7430  0.1345  0.4532
 1402TIP3    H130317   0.719   2.340   6.522  0.1578 -3.3483 -0.1354
 1402TIP3    H230318   0.589   2.396   6.469  1.3409 -0.5350 -0.2244
 1403TIP3   OH230319   3.375   5.750   1.544 -0.0307  0.5932  0.1859
 1403TIP3    H130320   3.467   5.744   1.519  0.0375  1.9634  0.0202
 1403TIP3    H230321   3.341   5.823   1.491 -1.1361  0.3046  0.4715
 1404TIP3   OH230322   8.113   4.142   0.846  0.0198  0.1604  0.0226
 1404TIP3    H130323   8.190   4.149   0.901 -0.6683 -1.3864  1.2658
 1404TIP3    H230324   8.049   4.202   0.886 -1.6577 -3.2963  3.1947
 1405TIP3   OH230325   4.449   3.928   7.928 -0.0446  0.2995 -0.5508
 1405TIP3    H130326   4.459   3.972   8.012 -1.4943 -0.7914  0.2244
 1405TIP3    H230327   4.538   3.903   7.904  0.2660 -0.5753  1.3374
 1406TIP3   OH230328   6.014   7.601   0.045  0.1897  0.6559  0.1309
 1406TIP3    H130329   5.994   7.660   0.118  1.2402 -0.2556  1.1919
 1406TIP3    H230330   6.108   7.614   0.029  0.5886 -1.1175  0.7846
 1407TIP3   OH230331   2.052   2.549   6.905 -0.0423 -0.4125  0.4213
 1407TIP3    H130332   2.144   2.577   6.913 -0.5542  1.1965  1.0998
 1407TIP3    H230333   2.016   2.561   6.993 -0.8114 -1.4874  0.2800
 1408TIP3   OH230334   6.555   0.758   6.534 -0.4392 -0.6781  0.0297
 1408TIP3    H130335   6.504   0.822   6.486  2.2715  1.4349 -0.2974
 1408TIP3    H230336   6.508   0.745   6.617 -2.3292 -0.2301 -0.9342
 1409TIP3   OH230337   0.678   0.545   6.497  0.6184  0.7158 -0.3038
 1409TIP3    H130338   0.739   0.539   6.570  0.2535  1.4359  0.0658
 1409TIP3    H230339   0.722   0.500   6.425  0.7988 -0.3633  0.4687
 1410TIP3   OH230340   1.077   5.772   6.173 -0.0073  0.0647  0.4117
 1410TIP3    H130341   1.079   5.867   6.159  1.7109  0.5221  2.9531
 1410TIP3    H230342   1.164   5.741   6.147  0.4140 -0.2961  2.0875
 1411TIP3   OH230343   4.570   5.465   2.119 -0.4208 -0.1073 -0.1239
 1411TIP3    H130344   4.517   5.387   2.101 -0.5651  0.2239 -1.1711
 1411TIP3    H230345   4.660   5.431   2.124 -0.5503 -0.4321  0.0557
 1412TIP3   OH230346   0.328   6.233   7.075  0.0525 -0.0416 -0.2661
 1412TIP3    H130347   0.304   6.148   7.111 -0.0598 -0.0495 -0.3598
 1412TIP3    H230348   0.358   6.284   7.150 -0.6762  0.1182 -0.0756
 1413TIP3   OH230349   0.269   2.351   7.004 -0.5519 -0.2774  0.6246
 1413TIP3    H130350   0.352   2.303   7.010  0.0663  0.7362  0.3243
 1413TIP3    H230351   0.276   2.400   6.923 -1.7291 -0.6757  0.2731
 1414TIP3   OH230352   5.449   6.538   1.471 -0.4715  0.0445 -0.1795
 1414TIP3    H130353   5.529   6.590   1.476 -0.9087  0.9396 -1.9108
 1414TIP3    H230354   5.378   6.603   1.466 -1.5571 -0.6725  3.1614
 1415TIP3   OH230355   2.012   1.446   0.148  0.4889  0.3190  0.5034
 1415TIP3    H130356   2.076   1.499   0.101 -1.3530  2.5097  0.3023
 1415TIP3    H230357   2.018   1.359   0.107  4.6252 -0.2492  1.8163
 1416TIP3   OH230358   4.999   1.150   0.733  0.4170 -0.0259  0.3082
 1416TIP3    H130359   4.972   1.135   0.642 -1.9744 -0.0187  0.9535
 1416TIP3    H230360   5.093   1.166   0.728  0.3066  0.1876 -2.1861
 1417TIP3   OH230361   6.391   6.849   0.053  0.2769 -0.1389 -0.0785
 1417TIP3    H130362   6.338   6.840   0.132  0.4356 -2.7467 -0.1880
 1417TIP3    H230363   6.365   6.934   0.016 -0.4126  0.7452  2.2873
 1418TIP3   OH230364   7.030   0.943   5.400  0.1476  0.1817  0.5442
 1418TIP3    H130365   7.001   0.862   5.442  0.2602 -0.4432 -0.5526
 1418TIP3    H230366   6.950   0.993   5.386 -0.0015 -0.0359  0.6146
 1419TIP3   OH230367   1.675   4.291   0.591 -0.2971 -0.1184 -0.3454
 1419TIP3    H130368   1.681   4.256   0.680 -0.0406 -1.6418 -0.9343
 1419TIP3    H230369   1.585   4.323   0.584 -0.8253 -1.4755 -0.0561
 1420TIP3   OH230370   7.280   2.180   1.284  0.0086 -0.2397  0.5719
 1420TIP3    H130371   7.290   2.275   1.293 -2.1241  0.0144  0.9918
 1420TIP3    H230372   7.214   2.170   1.215  0.1112 -1.4150  0.6260
 1421TIP3   OH230373   7.088   0.114   1.405  0.2344 -0.3072 -0.1029
 1421TIP3    H130374   7.094   0.192   1.350  0.2215 -1.0553 -1.2017
 1421TIP3    H230375   7.003   0.120   1.447  0.7170  0.8488  0.7306
 1422TIP3   OH230376   0.252   1.818   6.736 -0.5305 -0.5335 -0.3695
 1422TIP3    H130377   0.297   1.751   6.787  0.9217  1.3842  1.0176
 1422TIP3    H230378   0.214   1.876   6.801  1.3681  1.9893 -1.3605
 1423TIP3   OH230379   6.625   4.552   6.738 -0.4531 -0.2091 -0.4958
 1423TIP3    H130380   6.719   4.541   6.754 -0.2773  1.9548  0.2582
 1423TIP3    H230381   6.583   4.507   6.811  0.1179  1.2634  0.8018
 1424TIP3   OH230382   7.748   6.598   0.538  0.2705  0.8538 -0.7888
 1424TIP3    H130383   7.800   6.543   0.480 -0.8132  0.0633 -1.0502
 1424TIP3    H230384   7.775   6.688   0.517  0.7548  0.5154 -1.6637
 1425TIP3   OH230385   7.792   7.628   6.523  0.0081 -0.3873 -0.5237
 1425TIP3    H130386   7.786   7.588   6.610  0.2765  0.8667  0.0918
 1425TIP3    H230387   7.740   7.708   6.529 -0.4309 -0.5679 -1.6965
 1426TIP3   OH230388   6.438   2.743   5.896  0.3249  0.1928  0.7993
 1426TIP3    H130389   6.530   2.720   5.880  0.1641 -0.5330  0.9145
 1426TIP3    H230390   6.442   2.813   5.961  0.7088 -1.4516  2.6216
 1427TIP3   OH230391   3.777   3.108   1.476 -0.7372 -0.2846 -0.4027
 1427TIP3    H130392   3.688   3.141   1.485 -1.4090 -1.8442 -1.0923
 1427TIP3    H230393   3.812   3.107   1.565 -0.3483  2.9832 -0.3665
 1428TIP3   OH230394   2.411   2.533   0.198  0.4853  0.2556 -0.3604
 1428TIP3    H130395   2.372   2.620   0.192 -1.0548 -0.3534  0.3856
 1428TIP3    H230396   2.436   2.524   0.290  0.7102 -0.0715 -0.4514
 1429TIP3   OH230397   2.255   1.147   7.552  0.5053 -0.3382 -0.0236
 1429TIP3    H130398   2.208   1.093   7.488  2.0466  0.2034 -1.6927
 1429TIP3    H230399   2.347   1.120   7.544  1.1050  1.4896  0.1296
 1430TIP3   OH230400   0.355   4.336   0.490 -0.0910 -0.1758 -0.4582
 1430TIP3    H130401   0.298   4.284   0.546  0.6126  1.1189  1.5508
 1430TIP3    H230402   0.441   4.296   0.498 -0.2218 -0.7551 -1.6842
 1431TIP3   OH230403   7.177   6.288   0.580 -0.4353 -0.5977  0.1817
 1431TIP3    H130404   7.184   6.194   0.565 -1.5055 -0.4851 -1.1863
 1431TIP3    H230405   7.086   6.309   0.557  0.4456  1.1760 -1.9992
 1432TIP3   OH230406   7.359   3.353   1.687  0.3349 -0.1595  0.0340
 1432TIP3    H130407   7.437   3.314   1.649  0.0352 -1.5682  0.7939
 1432TIP3    H230408   7.373   3.349   1.781 -0.7574 -0.7043  0.1892
 1433TIP3   OH230409   1.790   4.725   6.773  0.4498  0.0825 -0.4727
 1433TIP3    H130410   1.818   4.766   6.855  1.1793 -1.1051 -0.1033
 1433TIP3    H230411   1.699   4.701   6.787 -0.0182  1.6018 -0.7246
 1434TIP3   OH230412   3.717   1.407   7.660 -0.0716 -0.1331 -0.5388
 1434TIP3    H130413   3.709   1.475   7.594 -1.8010 -1.8330 -2.2303
 1434TIP3    H230414   3.627   1.378   7.675  0.3251 -0.1774  2.2227
 1435TIP3   OH230415   5.280   7.194   1.826  0.1117  0.5629 -0.3585
 1435TIP3    H130416   5.339   7.122   1.846  0.0524  0.4536 -0.5804
 1435TIP3    H230417   5.336   7.272   1.828 -0.4583  1.0932  3.8744
 1436TIP3   OH230418   4.447   1.602   1.281 -0.1745  0.3577 -0.0494
 1436TIP3    H130419   4.490   1.537   1.225  0.1028  1.2921 -0.9296
 1436TIP3    H230420   4.415   1.551   1.356  1.1611 -0.5874 -0.0984
 1437TIP3   OH230421   7.985   5.635   1.295  0.4564  0.3795 -0.1192
 1437TIP3    H130422   7.903   5.629   1.344  0.6743  0.7008  0.2977
 1437TIP3    H230423   8.046   5.578   1.342  0.5487  0.3526 -0.2676
 1438TIP3   OH230424   5.806   7.552   7.248  0.0768  0.5898 -0.0439
 1438TIP3    H130425   5.898   7.548   7.274  0.1634 -0.1227 -0.4399
 1438TIP3    H230426   5.759   7.513   7.322  0.0103  1.6486  0.4948
 1439TIP3   OH230427   4.769   7.665   6.227 -0.3708  0.5025  0.2259
 1439TIP3    H130428   4.688   7.655   6.176 -0.2383  1.6259 -0.2242
 1439TIP3    H230429   4.760   7.750   6.270 -0.4899 -0.4138  2.1379
 1440TIP3   OH230430   0.098   5.851   7.763 -0.1730 -0.1281  0.2053
 1440TIP3    H130431   0.096   5.945   7.747 -0.2183 -0.0928  0.4156
 1440TIP3    H230432   0.063   5.812   7.683 -1.3712  0.0912  0.6066
 1441TIP3   OH230433   2.653   3.916   7.806 -0.1009 -0.0113  0.1835
 1441TIP3    H130434   2.663   3.905   7.901  0.0400  0.0597  0.1766
 1441TIP3    H230435   2.598   3.842   7.780 -0.3894  0.1383  0.3643
 1442TIP3   OH230436   3.327   6.395   5.716  0.5762  0.0113  0.3655
 1442TIP3    H130437   3.422   6.388   5.727  0.9585  0.4004 -2.0870
 1442TIP3    H230438   3.313   6.486   5.689 -0.8312  0.6776  3.0904
 1443TIP3   OH230439   1.553   2.183   6.005 -0.3569  0.3235  0.2669
 1443TIP3    H130440   1.472   2.232   5.997 -0.4381  0.2267  0.4765
 1443TIP3    H230441   1.562   2.137   5.921 -1.2084 -0.7093  0.7115
 1444TIP3   OH230442   1.849   6.805   5.337  0.5592 -0.1907  0.0317
 1444TIP3    H130443   1.860   6.801   5.432  0.6371 -0.1469  0.0250
 1444TIP3    H230444   1.869   6.716   5.307 -0.8491 -0.5836  0.1921
 1445TIP3   OH230445   5.585   3.502   0.461 -0.7691  0.0743 -0.5883
 1445TIP3    H130446   5.644   3.575   0.443  1.1617 -1.6357 -1.6944
 1445TIP3    H230447   5.567   3.464   0.374 -0.8562 -1.3621  0.0229
 1446TIP3   OH230448   5.652   4.891   7.398  0.0627  0.2613 -0.9910
 1446TIP3    H130449   5.696   4.896   7.313 -0.6372  0.5710 -1.3468
 1446TIP3    H230450   5.622   4.800   7.404  0.8176  0.0317 -0.7134
 1447TIP3   OH230451   4.577   0.135   1.428 -0.3254 -0.2611 -0.4832
 1447TIP3    H130452   4.525   0.206   1.389  2.4011  1.4025 -1.3631
 1447TIP3    H230453   4.597   0.166   1.516 -1.7207 -1.4174  0.2639
 1448TIP3   OH230454   5.004   7.052   0.926  0.3790  0.2674 -0.4986
 1448TIP3    H130455   5.070   7.118   0.949  0.6020  0.5115 -1.7620
 1448TIP3    H230456   5.035   7.015   0.843 -0.5165 -0.3840 -0.5580
 1449TIP3   OH230457   5.114   6.214   6.348  0.3090 -0.4356  0.0453
 1449TIP3    H130458   5.185   6.202   6.411  3.7397 -0.4683 -3.4647
 1449TIP3    H230459   5.099   6.309   6.346 -1.1600 -0.5586  2.0500
 1450TIP3   OH230460   5.543   6.245   7.171 -0.0988 -0.4249  0.1828
 1450TIP3    H130461   5.609   6.176   7.164 -0.3780 -0.7293  0.5463
 1450TIP3    H230462   5.480   6.226   7.102  0.4280  0.1302 -0.4693
 1451TIP3   OH230463   6.888   6.939   7.739  0.0226 -0.2880 -0.6368
 1451TIP3    H130464   6.819   7.003   7.756  0.2889 -0.1336 -0.1132
 1451TIP3    H230465   6.945   6.981   7.675  0.2588  0.0424 -0.2100
 1452TIP3   OH230466   2.836   5.461   7.188  0.0776  0.0121 -0.1014
 1452TIP3    H130467   2.781   5.399   7.235 -0.7147  1.7327  1.3509
 1452TIP3    H230468   2.925   5.434   7.208 -0.2518 -0.1491  1.2388
 1453TIP3   OH230469   2.069   6.551   1.598 -0.5224 -0.0060 -0.2839
 1453TIP3    H130470   1.991   6.501   1.622 -2.2028  2.2638 -0.6529
 1453TIP3    H230471   2.091   6.601   1.677  1.3705 -1.4935  0.2081
 1454TIP3   OH230472   7.194   5.174   0.126 -0.5834  0.5380  0.0800
 1454TIP3    H130473   7.274   5.224   0.137 -0.4354  0.1589  0.7405
 1454TIP3    H230474   7.138   5.200   0.199 -1.2104  1.0672 -0.5738
 1455TIP3   OH230475   2.008   0.064   0.501 -0.1148 -0.0275  0.5044
 1455TIP3    H130476   2.065   0.040   0.427 -1.2369 -0.1972 -0.3306
 1455TIP3    H230477   1.991  -0.019   0.545  0.3571  0.0390  0.8222
 1456TIP3   OH230478   4.284   2.408   6.551 -0.0664 -0.0131 -0.1967
 1456TIP3    H130479   4.333   2.416   6.632 -1.0248  2.3991  0.2103
 1456TIP3    H230480   4.219   2.340   6.569  1.2240 -1.1958  0.1974
 1457TIP3   OH230481   5.056   2.786   1.088 -0.2325  0.1558  0.3587
 1457TIP3    H130482   4.979   2.740   1.053 -1.3420  0.4439  2.2642
 1457TIP3    H230483   5.130   2.748   1.040 -1.3270 -1.9258  0.1643
 1458TIP3   OH230484   6.761   5.448   7.914 -0.1896 -0.1418  0.0193
 1458TIP3    H130485   6.849   5.415   7.900  0.3588  0.8851  0.8168
 1458TIP3    H230486   6.756   5.464   8.009 -0.6999  1.2119 -0.2109
 1459TIP3   OH230487   3.185   5.777   7.563  0.7592 -0.0113 -0.1006
 1459TIP3    H130488   3.267   5.824   7.575  0.6042  0.2707 -0.1423
 1459TIP3    H230489   3.204   5.688   7.591  0.8761  0.2317  0.6231
 1460TIP3   OH230490   0.832   1.124   6.124 -0.8533 -0.0015 -0.0029
 1460TIP3    H130491   0.771   1.192   6.152 -0.2307  0.2286  0.8243
 1460TIP3    H230492   0.840   1.066   6.199 -1.5408 -1.1268 -0.7749
 1461TIP3   OH230493   3.230   1.307   0.557  0.3734 -0.4869 -0.8181
 1461TIP3    H130494   3.145   1.284   0.520 -0.5253 -1.4677  1.6078
 1461TIP3    H230495   3.209   1.362   0.633  1.9317 -0.2422 -0.5301
 1462TIP3   OH230496   3.585   5.808   0.099 -0.3819 -0.4612 -0.7996
 1462TIP3    H130497   3.669   5.801   0.144 -1.6931  0.2791  2.0017
 1462TIP3    H230498   3.594   5.883   0.041  0.3217  0.9250  1.0081
 1463TIP3   OH230499   0.540   0.716   0.296  0.0674  0.2731 -0.0088
 1463TIP3    H130500   0.540   0.641   0.237 -1.0611 -0.1326  0.4848
 1463TIP3    H230501   0.531   0.679   0.384 -1.3765  0.9886  0.1852
 1464TIP3   OH230502   6.004   3.382   7.375  0.0421 -0.0612 -0.4186
 1464TIP3    H130503   5.995   3.341   7.462 -1.7706  0.3931 -0.3508
 1464TIP3    H230504   6.003   3.309   7.314  2.6436 -0.4991 -0.0569
 1465TIP3   OH230505   2.773   6.633   6.657 -0.1116 -0.6870 -0.1408
 1465TIP3    H130506   2.848   6.575   6.670  0.3051 -0.2974 -0.7486
 1465TIP3    H230507   2.802   6.717   6.693 -0.4252 -0.6530  0.0326
 1466TIP3   OH230508   4.441   7.037   0.187 -0.2576  0.2927 -0.5642
 1466TIP3    H130509   4.391   6.971   0.138 -1.4090 -0.1003  1.0878
 1466TIP3    H230510   4.425   7.016   0.279  1.2912  1.4490  0.0012
 1467TIP3   OH230511   7.283   4.801   0.169  0.2123 -0.2233  0.1216
 1467TIP3    H130512   7.227   4.805   0.091  1.2369 -2.5574 -0.8331
 1467TIP3    H230513   7.229   4.837   0.239 -1.5097  0.0406 -1.2596
 1468TIP3   OH230514   5.713   2.695   1.800 -0.3928 -0.1201  0.1343
 1468TIP3    H130515   5.644   2.754   1.832  1.0361  1.4365  0.5229
 1468TIP3    H230516   5.794   2.737   1.829  0.7540 -1.4258 -1.0869
 1469TIP3   OH230517   0.881   2.518   1.991 -0.2623  0.0611  0.1403
 1469TIP3    H130518   0.950   2.465   1.952 -0.4806 -0.4337  0.4091
 1469TIP3    H230519   0.811   2.455   2.011 -1.0668  0.6504 -0.7295
 1470TIP3   OH230520   2.781   2.207   7.064  0.1345  0.6781  0.3418
 1470TIP3    H130521   2.789   2.112   7.048  0.2879  0.4740  1.5797
 1470TIP3    H230522   2.756   2.214   7.156 -2.5950  1.7487 -0.3680
 1471TIP3   OH230523   0.651   5.624   0.965 -0.0822  0.4516 -0.0460
 1471TIP3    H130524   0.741   5.603   0.991  0.0026 -0.4393 -0.9945
 1471TIP3    H230525   0.653   5.620   0.869 -1.1813  0.2319 -0.0674
 1472TIP3   OH230526   1.097   2.048   0.403 -0.0109 -0.1926  0.3181
 1472TIP3    H130527   1.092   2.090   0.489 -0.4650  1.3302 -0.4211
 1472TIP3    H230528   1.162   2.100   0.355  0.3560 -1.1262 -0.2273
 1473TIP3   OH230529   5.771   5.593   0.116  0.0509  0.1302 -0.0522
 1473TIP3    H130530   5.842   5.535   0.089  1.5942  0.7632  2.3535
 1473TIP3    H230531   5.779   5.669   0.059  1.6235  0.3917  0.4894
 1474TIP3   OH230532   3.561   0.623   6.716  0.2494  0.2045 -0.1158
 1474TIP3    H130533   3.477   0.596   6.679 -0.7229 -0.2860  2.2660
 1474TIP3    H230534   3.562   0.718   6.708 -0.3694  0.1829 -0.4832
 1475TIP3   OH230535   4.167   0.888   7.855 -0.3871 -0.7618  0.4519
 1475TIP3    H130536   4.102   0.938   7.904 -0.8546 -0.6342 -0.2821
 1475TIP3    H230537   4.159   0.799   7.889 -1.3510 -0.8681 -0.0106
 1476TIP3   OH230538   5.109   0.588   1.402 -0.3182 -0.5119 -0.0781
 1476TIP3    H130539   5.058   0.661   1.366  1.4730  1.6835  1.5996
 1476TIP3    H230540   5.188   0.586   1.348 -1.5409 -3.2542 -2.0110
 1477TIP3   OH230541   5.744   8.000   1.819 -0.2824 -0.2791 -0.4240
 1477TIP3    H130542   5.652   7.980   1.803 -0.6917  0.1613  1.1476
 1477TIP3    H230543   5.743   8.054   1.898  1.3228 -0.1856 -0.4331
 1478TIP3   OH230544   7.560   4.614   2.161 -0.6632 -0.1091 -0.1650
 1478TIP3    H130545   7.646   4.651   2.139  0.4383 -1.3690  1.6865
 1478TIP3    H230546   7.507   4.690   2.185  0.1228  0.6432 -0.7308
 1479TIP3   OH230547   2.934   6.192   1.619  0.7709  0.2652  0.1571
 1479TIP3    H130548   2.865   6.223   1.561  1.6736  0.8197 -0.6394
 1479TIP3    H230549   2.930   6.251   1.695  0.9967  0.9123 -0.3245
 1480TIP3   OH230550   6.042   2.134   1.616  0.6347  0.0765 -0.0135
 1480TIP3    H130551   5.971   2.105   1.559  0.2748  1.3708 -0.2597
 1480TIP3    H230552   6.047   2.068   1.684 -0.8836  0.0201  0.0722
 1481TIP3   OH230553   4.026   2.914   1.473  0.0707  0.4867 -0.1903
 1481TIP3    H130554   4.013   2.847   1.406  1.4327 -0.1968  0.1933
 1481TIP3    H230555   3.954   2.977   1.459 -0.7931 -0.6515 -1.0295
 1482TIP3   OH230556   6.134   3.282   0.856  0.0118 -0.1709 -0.6503
 1482TIP3    H130557   6.125   3.198   0.810 -2.2363  0.1919 -1.0311
 1482TIP3    H230558   6.081   3.271   0.935  0.9364  0.4086  0.0679
 1483TIP3   OH230559   7.872   0.201   7.423 -0.6010  0.2946 -0.0580
 1483TIP3    H130560   7.859   0.268   7.490 -0.2811  0.8142 -0.5045
 1483TIP3    H230561   7.851   0.119   7.466 -1.0059  0.6873  0.4965
 1484TIP3   OH230562   4.419   7.324   1.220 -0.0252  0.0507  0.3081
 1484TIP3    H130563   4.345   7.381   1.239 -0.8602 -1.2814  1.1872
 1484TIP3    H230564   4.489   7.383   1.193 -1.4862  1.3208 -0.8508
 1485TIP3   OH230565   5.739   7.915   7.415  0.3634  0.3186  0.1210
 1485TIP3    H130566   5.666   7.876   7.465  0.6382 -0.6744 -0.2271
 1485TIP3    H230567   5.716   8.008   7.408 -1.4881 -0.1592 -1.0033
 1486TIP3   OH230568   1.712   4.140   0.153  0.2409  0.5079 -0.5078
 1486TIP3    H130569   1.776   4.189   0.101  2.7830 -0.9595  0.9650
 1486TIP3    H230570   1.750   4.140   0.242 -3.1647  1.7179  1.1285
 1487TIP3   OH230571   6.370   7.760   1.389  0.4590  0.0868  0.5394
 1487TIP3    H130572   6.345   7.729   1.476 -3.2631  1.1072  0.0234
 1487TIP3    H230573   6.360   7.683   1.332  2.0566 -0.3640  0.8193
 1488TIP3   OH230574   3.039   3.209   1.153  0.0463  0.0317  0.4580
 1488TIP3    H130575   2.975   3.154   1.108  1.0703 -1.9292  1.2900
 1488TIP3    H230576   3.120   3.198   1.103  1.0148 -1.6135  2.2605
 1489TIP3   OH230577   4.229   1.530   7.689  0.4115  0.3024  0.6889
 1489TIP3    H130578   4.150   1.568   7.727  0.9481  3.0759 -0.7049
 1489TIP3    H230579   4.209   1.437   7.680 -2.3909  0.7819  1.0925
 1490TIP3   OH230580   7.361   2.445   5.787  0.6936 -0.6534  0.3765
 1490TIP3    H130581   7.439   2.487   5.753  0.3929 -0.0392  0.4205
 1490TIP3    H230582   7.315   2.515   5.835  0.0089 -0.9391  0.1589
 1491TIP3   OH230583   2.421   8.054   0.728  0.6006  0.5442  0.0581
 1491TIP3    H130584   2.328   8.056   0.751  0.7477  1.2216  0.6390
 1491TIP3    H230585   2.455   8.138   0.759  1.1598  0.8120 -1.2189
 1492TIP3   OH230586   2.155   5.173   0.379  0.3058  0.0058 -0.2700
 1492TIP3    H130587   2.246   5.147   0.365  0.7270  1.4460 -0.3865
 1492TIP3    H230588   2.158   5.231   0.455 -0.2620  1.2394 -1.1354
 1493TIP3   OH230589   6.534   7.847   0.275  0.4870 -0.0121 -0.7628
 1493TIP3    H130590   6.569   7.798   0.349  0.7200  1.0087 -0.1846
 1493TIP3    H230591   6.584   7.929   0.274 -1.0701  0.9902 -0.6345
 1494TIP3   OH230592   4.790   4.973   1.480  0.0222 -0.0462 -0.2465
 1494TIP3    H130593   4.791   4.895   1.424 -0.6367 -0.0099 -0.3234
 1494TIP3    H230594   4.723   5.029   1.440  0.3641  0.4812 -0.0862
 1495TIP3   OH230595   7.805   0.598   7.367 -0.4921  0.2966 -0.1702
 1495TIP3    H130596   7.777   0.538   7.298 -1.4370  0.9453 -0.3617
 1495TIP3    H230597   7.874   0.550   7.413 -0.5127 -0.5234 -0.9598
 1496TIP3   OH230598   5.215   2.800   2.179 -0.2990 -0.3306 -0.0928
 1496TIP3    H130599   5.295   2.843   2.149 -1.7583  1.7902 -1.1609
 1496TIP3    H230600   5.245   2.737   2.244  2.2143  0.5565 -0.2930
 1497TIP3   OH230601   3.366   3.043   2.295 -0.1836  0.0682 -0.2820
 1497TIP3    H130602   3.390   3.066   2.385 -1.5150 -0.8402  0.3429
 1497TIP3    H230603   3.438   3.078   2.241  0.4371  0.9854  1.0786
 1498TIP3   OH230604   3.588   5.407   0.734  0.4979 -0.8055  0.1217
 1498TIP3    H130605   3.663   5.438   0.683  1.3193 -1.6265  0.7754
 1498TIP3    H230606   3.625   5.340   0.792 -0.5518 -0.4854  1.2031
 1499TIP3   OH230607   3.502   7.963   5.966 -0.5495 -0.4502  0.1631
 1499TIP3    H130608   3.408   7.949   5.951 -0.6991  0.1504  0.5098
 1499TIP3    H230609   3.543   7.942   5.883 -1.0261 -0.4117 -0.0861
 1500TIP3   OH230610   0.181   7.604   0.874  0.0785  0.1689 -0.1012
 1500TIP3    H130611   0.120   7.667   0.836 -1.2439 -0.7379  0.4250
 1500TIP3    H230612   0.240   7.581   0.802  0.9226  2.3534 -0.1594
 1501TIP3   OH230613   6.896   1.198   0.604  0.2681  0.3738 -0.0275
 1501TIP3    H130614   6.904   1.104   0.622  1.8473  0.5787  0.5462
 1501TIP3    H230615   6.982   1.223   0.570  0.7983  2.1038  2.3307
 1502TIP3   OH230616   7.430   7.466   6.612  0.4560  0.3772  0.2960
 1502TIP3    H130617   7.347   7.419   6.613 -0.3839  1.7857  0.8279
 1502TIP3    H230618   7.485   7.419   6.550 -0.7527 -0.5644 -0.0793
 1503TIP3   OH230619   6.436   4.250   2.568 -0.0940  0.0732 -0.1312
 1503TIP3    H130620   6.462   4.298   2.490 -3.9425  0.3092 -1.5261
 1503TIP3    H230621   6.504   4.185   2.581  0.8948  0.2500 -3.5211
 1504TIP3   OH230622   7.144   1.228   6.706 -0.2986  0.0672 -0.5739
 1504TIP3    H130623   7.153   1.312   6.749 -0.3409  0.1973 -0.8164
 1504TIP3    H230624   7.223   1.180   6.729  0.7096  0.9300 -2.1100
 1505TIP3   OH230625   3.112   7.705   7.368  0.1338  0.2875  0.0022
 1505TIP3    H130626   3.018   7.704   7.389  0.1892 -1.4348  0.2862
 1505TIP3    H230627   3.152   7.753   7.440 -0.2107 -1.6173  1.5267
 1506TIP3   OH230628   6.034   6.285   6.497  0.2308  0.3283  0.1430
 1506TIP3    H130629   5.980   6.328   6.431  0.6969  2.0416  0.8227
 1506TIP3    H230630   6.109   6.250   6.448  0.5551  1.5477 -0.2615
 1507TIP3   OH230631   7.575   1.918   1.535 -0.1200 -0.1990 -0.4259
 1507TIP3    H130632   7.542   1.843   1.485  0.3498 -0.3302 -0.5432
 1507TIP3    H230633   7.648   1.951   1.483 -0.4301  0.4520 -0.4613
 1508TIP3   OH230634   6.564   5.637   1.582 -0.1933 -0.5818 -0.2451
 1508TIP3    H130635   6.634   5.697   1.556 -0.4713  0.1660  0.6683
 1508TIP3    H230636   6.499   5.646   1.513  0.9307 -1.9037 -1.5472
 1509TIP3   OH230637   1.295   6.067   6.279  0.0943 -0.0929  0.0380
 1509TIP3    H130638   1.209   6.031   6.259  1.0598 -3.2237  0.9283
 1509TIP3    H230639   1.314   6.127   6.207 -2.0937 -0.6683 -1.0960
 1510TIP3   OH230640   4.927   1.572   0.253 -0.1996 -0.4310 -0.4085
 1510TIP3    H130641   4.866   1.634   0.293 -2.6055 -1.6360 -1.9647
 1510TIP3    H230642   4.940   1.604   0.164  0.6457 -0.7498 -0.4131
 1511TIP3   OH230643   0.315   0.715   7.488  0.2029  0.8969  0.3250
 1511TIP3    H130644   0.297   0.766   7.409 -1.8898 -0.4359 -0.1480
 1511TIP3    H230645   0.335   0.627   7.456 -2.4543 -0.1486  1.2333
 1512TIP3   OH230646   0.120   6.991   1.525  0.3324  0.1052 -0.1049
 1512TIP3    H130647   0.125   6.915   1.467  0.0366 -0.0033  0.0081
 1512TIP3    H230648   0.067   6.961   1.599 -1.1770  0.8946 -0.8203
 1513TIP3   OH230649   3.337   2.361   6.772 -0.2865  0.4015 -0.0181
 1513TIP3    H130650   3.421   2.345   6.815 -0.4254  0.9221  0.4470
 1513TIP3    H230651   3.355   2.343   6.679  0.1124 -0.3282  0.1889
 1514TIP3   OH230652   7.977   7.655   5.554 -0.5373  0.1811  0.6750
 1514TIP3    H130653   8.042   7.586   5.540 -1.1874 -0.4825  0.8879
 1514TIP3    H230654   8.029   7.735   5.566  0.2455 -0.3858  1.1309
 1515TIP3   OH230655   0.755   6.978   7.591 -0.9133 -0.6548 -0.0739
 1515TIP3    H130656   0.690   7.045   7.567 -1.4240 -0.2047  2.3042
 1515TIP3    H230657   0.838   7.015   7.562 -1.0997  1.3895  1.7588
 1516TIP3   OH230658   4.036   1.040   0.117 -0.6121 -0.3812 -0.0871
 1516TIP3    H130659   3.990   1.119   0.144  0.9495  0.5613 -0.0710
 1516TIP3    H230660   4.028   0.981   0.192 -1.2122  0.0093  0.1617
 1517TIP3   OH230661   7.388   3.501   0.690  0.4461 -0.2320  0.0241
 1517TIP3    H130662   7.307   3.553   0.686 -0.4771 -1.5432  0.8507
 1517TIP3    H230663   7.458   3.566   0.681 -0.6745  0.8207 -1.9281
 1518TIP3   OH230664   4.214   2.535   6.066  0.3126  0.0210 -0.3794
 1518TIP3    H130665   4.307   2.533   6.041  1.3040 -0.8290  2.8981
 1518TIP3    H230666   4.193   2.629   6.069  0.6780  0.2087 -2.1841
 1519TIP3   OH230667   4.104   4.637   0.541 -0.7372  0.0455  0.3044
 1519TIP3    H130668   4.134   4.562   0.490 -2.1889  0.8731 -1.9510
 1519TIP3    H230669   4.027   4.606   0.587 -0.5326 -0.2105  0.4744
 1520TIP3   OH230670   4.055   7.698   1.566  0.6907 -0.3320 -0.2723
 1520TIP3    H130671   4.129   7.759   1.563  0.6332  0.0666  2.6910
 1520TIP3    H230672   4.095   7.613   1.584  0.5191 -0.3561  0.0019
 1521TIP3   OH230673   6.749   0.993   5.665 -0.5921  0.0896 -0.7078
 1521TIP3    H130674   6.841   1.017   5.654 -0.5305 -0.3251 -1.1685
 1521TIP3    H230675   6.706   1.023   5.585 -0.6217 -0.7742 -1.0335
 1522TIP3   OH230676   6.934   0.564   7.084  0.3574  1.1495 -0.0797
 1522TIP3    H130677   6.991   0.590   7.012  1.1714  0.4547  0.2991
 1522TIP3    H230678   6.965   0.477   7.109 -0.7060  0.8622  0.3054
 1523TIP3   OH230679   7.989   0.107   0.730  0.5549  0.1421  0.3544
 1523TIP3    H130680   7.911   0.125   0.783 -1.3998  0.0421 -2.3040
 1523TIP3    H230681   8.014   0.018   0.754 -0.4788 -0.0275  0.8712
 1524TIP3   OH230682   2.853   0.944   5.816 -0.2467 -0.3594 -0.1125
 1524TIP3    H130683   2.799   1.015   5.782 -0.5115 -0.7013 -0.4135
 1524TIP3    H230684   2.917   0.928   5.747 -1.7467 -2.1094 -1.1864
 1525TIP3   OH230685   6.722   6.642   0.405  0.3683  0.3264 -0.6575
 1525TIP3    H130686   6.672   6.666   0.483 -0.8674  0.4772 -1.4597
 1525TIP3    H230687   6.734   6.724   0.358  3.1310  0.6564  0.4303
 1526TIP3   OH230688   1.732   1.629   7.615 -0.1165 -0.4101 -0.9826
 1526TIP3    H130689   1.814   1.678   7.620 -0.7367  0.6365 -0.7685
 1526TIP3    H230690   1.694   1.654   7.530 -1.8519  1.8658  0.3505
 1527TIP3   OH230691   2.403   2.913   1.335  0.8083  0.7278  0.2067
 1527TIP3    H130692   2.492   2.930   1.303  0.9685 -0.1660  0.1518
 1527TIP3    H230693   2.404   2.821   1.362 -0.4814  0.2801 -1.0904
 1528TIP3   OH230694   0.722   4.381   7.160  0.3788  0.3280  0.2132
 1528TIP3    H130695   0.687   4.468   7.178  2.1629  1.0065  0.5769
 1528TIP3    H230696   0.723   4.337   7.246 -1.6474 -0.5545 -0.1408
 1529TIP3   OH230697   7.289   2.998   0.157  0.2301  0.7114 -0.4218
 1529TIP3    H130698   7.308   2.960   0.243  0.3750 -0.4708 -0.9669
 1529TIP3    H230699   7.375   3.005   0.115 -0.0501 -0.7364 -1.2869
 1530TIP3   OH230700   6.373   5.660   0.605 -0.2402  0.3115  0.4565
 1530TIP3    H130701   6.418   5.726   0.551  1.3809 -1.6191 -0.6742
 1530TIP3    H230702   6.285   5.654   0.566 -0.0670  1.0423 -0.0775
 1531TIP3   OH230703   4.859   0.679   2.344  0.1599  0.2043 -0.2506
 1531TIP3    H130704   4.834   0.755   2.291  0.1100  0.1311 -0.3346
 1531TIP3    H230705   4.862   0.607   2.281 -0.2704  0.0403 -0.0917
 1532TIP3   OH230706   4.335   6.100   1.784  0.4122 -0.3873 -0.2569
 1532TIP3    H130707   4.366   6.016   1.818 -2.1908 -1.9821 -1.5571
 1532TIP3    H230708   4.241   6.101   1.804 -0.0893  1.1462 -2.3582
 1533TIP3   OH230709   5.435   4.146   0.145 -0.4022 -0.0742 -0.4763
 1533TIP3    H130710   5.483   4.220   0.182 -0.1900 -0.6914  0.5227
 1533TIP3    H230711   5.343   4.167   0.161 -0.3540  0.0918 -0.4090
 1534TIP3   OH230712   2.636   3.713   7.098  0.4451 -0.2081 -0.1188
 1534TIP3    H130713   2.580   3.645   7.060  0.4264 -0.2094 -0.0888
 1534TIP3    H230714   2.654   3.772   7.025 -0.6236  0.4752  0.1439
 1535TIP3   OH230715   5.821   0.060   0.485  0.2824  0.5020 -0.0538
 1535TIP3    H130716   5.829  -0.022   0.534 -0.4782  0.6200  0.2810
 1535TIP3    H230717   5.875   0.046   0.407 -0.6397 -0.7142 -0.5108
 1536TIP3   OH230718   3.983   3.591   0.482 -0.0420 -0.0224 -0.1279
 1536TIP3    H130719   3.971   3.603   0.576  0.2211  1.7647 -0.2828
 1536TIP3    H230720   3.895   3.602   0.445 -0.1625 -0.8248 -0.0986
 1537TIP3   OH230721   7.556   0.798   0.896 -0.4050  0.2214  0.6029
 1537TIP3    H130722   7.489   0.729   0.894  0.4155 -0.5825  0.3784
 1537TIP3    H230723   7.508   0.878   0.875 -1.6791  0.0072  2.4591
 1538TIP3   OH230724   6.762   5.805   6.981  0.1414  0.4859 -0.2053
 1538TIP3    H130725   6.738   5.858   6.904 -0.9301  0.7607  0.2951
 1538TIP3    H230726   6.695   5.827   7.046 -0.2221 -1.3284  0.0860
 1539TIP3   OH230727   0.195   1.819   0.036  0.0990 -0.1051  0.2585
 1539TIP3    H130728   0.284   1.834   0.067  0.0238  0.1346  0.3590
 1539TIP3    H230729   0.156   1.761   0.101 -0.3462  1.1049  1.1108
 1540TIP3   OH230730   1.589   2.948   1.985  0.1576  0.0625 -0.3098
 1540TIP3    H130731   1.632   2.932   2.069  3.1385  1.5039 -1.4313
 1540TIP3    H230732   1.517   2.885   1.983 -0.1422  0.0779  3.3351
 1541TIP3   OH230733   5.310   3.766   7.298 -0.2799  0.9843 -0.4438
 1541TIP3    H130734   5.220   3.738   7.282 -0.1166 -0.1393  0.4859
 1541TIP3    H230735   5.303   3.837   7.361 -0.4486 -0.4488  1.2402
 1542TIP3   OH230736   4.857   1.474   1.144  0.0434 -0.0131 -0.6054
 1542TIP3    H130737   4.950   1.453   1.140  0.0802  0.2823 -1.3803
 1542TIP3    H230738   4.854   1.570   1.150 -0.2080 -0.0304 -0.4326
 1543TIP3   OH230739   5.281   6.050   0.705 -0.0468 -0.0390 -0.2314
 1543TIP3    H130740   5.333   6.122   0.667  0.3649 -0.8359 -1.2183
 1543TIP3    H230741   5.197   6.091   0.727 -0.0411  0.6349 -1.3534
 1544TIP3   OH230742   6.977   6.515   7.512 -0.1077  0.3826  0.0109
 1544TIP3    H130743   7.027   6.454   7.566 -0.5985 -0.0554 -0.0253
 1544TIP3    H230744   6.914   6.555   7.572 -2.4647 -2.0224 -0.6643
 1545TIP3   OH230745   4.432   6.653   6.703 -0.7911  0.1044 -0.3706
 1545TIP3    H130746   4.487   6.717   6.749  1.3663 -0.0990 -2.4800
 1545TIP3    H230747   4.444   6.673   6.610 -1.4110 -2.2653 -1.0361
 1546TIP3   OH230748   3.271   1.646   6.998 -0.2013 -0.2976  0.0092
 1546TIP3    H130749   3.233   1.734   6.995  1.1291  0.4706  2.8614
 1546TIP3    H230750   3.205   1.594   7.044  0.1592 -0.1158  0.7394
 1547TIP3   OH230751   7.363   0.749   7.155  0.4164  0.7117  0.2407
 1547TIP3    H130752   7.327   0.660   7.155  0.3420  0.7352 -0.3954
 1547TIP3    H230753   7.313   0.795   7.088  1.7608  0.6818 -0.8322
 1548TIP3   OH230754   0.432   0.705   7.933 -0.0386 -0.2839 -0.1191
 1548TIP3    H130755   0.489   0.713   7.856  0.7008 -2.5874  0.1219
 1548TIP3    H230756   0.346   0.733   7.901  0.9955  2.6676 -0.6514
 1549TIP3   OH230757   1.357   3.896   1.583 -0.4041 -0.0990  0.1207
 1549TIP3    H130758   1.340   3.888   1.489 -2.1013  1.1058  0.2718
 1549TIP3    H230759   1.278   3.861   1.624  0.8516 -1.8438  1.1786
 1550TIP3   OH230760   7.025   1.578   0.144  0.2697  0.0225 -0.5999
 1550TIP3    H130761   6.969   1.655   0.150  0.8600  0.4651 -0.6817
 1550TIP3    H230762   7.103   1.600   0.196  0.2967 -0.6484 -0.3410
 1551TIP3   OH230763   3.346   1.673   1.239  0.1142 -0.2213  0.1109
 1551TIP3    H130764   3.401   1.632   1.173  0.4113 -0.1454  0.3120
 1551TIP3    H230765   3.386   1.759   1.253 -0.0736 -0.1539  0.2339
 1552TIP3   OH230766   0.765   0.420   0.886 -0.5133  0.7412  0.3875
 1552TIP3    H130767   0.847   0.432   0.934 -1.0860  0.8354  1.3685
 1552TIP3    H230768   0.696   0.447   0.948 -1.2188  2.1146 -0.9188
 1553TIP3   OH230769   5.891   1.344   0.998  0.8408  0.2585  0.3062
 1553TIP3    H130770   5.871   1.278   1.065 -0.6408  0.4689  0.1099
 1553TIP3    H230771   5.881   1.428   1.043 -0.1213  0.4001 -0.1548
 1554TIP3   OH230772   6.158   4.159   2.578 -0.1202 -0.1867  0.0707
 1554TIP3    H130773   6.242   4.178   2.537 -0.3329  2.2935  0.6065
 1554TIP3    H230774   6.173   4.173   2.672 -0.6659 -1.6629  0.4110
 1555TIP3   OH230775   1.308   3.701   1.085  0.8387 -0.4504 -0.2260
 1555TIP3    H130776   1.222   3.734   1.060  1.0889 -0.6545 -1.4235
 1555TIP3    H230777   1.307   3.609   1.059  2.1277  0.0419 -2.2368
 1556TIP3   OH230778   2.330   6.787   6.637 -0.2478  0.2647  1.2835
 1556TIP3    H130779   2.354   6.875   6.609  0.4214 -0.6269 -1.2041
 1556TIP3    H230780   2.315   6.739   6.555 -0.3984 -1.9907  2.5496
 1557TIP3   OH230781   6.497   5.891   0.463  0.1545 -0.4113  0.1331
 1557TIP3    H130782   6.435   5.960   0.441 -0.5752  0.9064  5.0728
 1557TIP3    H230783   6.513   5.846   0.381 -2.9587  2.6908 -2.4905
 1558TIP3   OH230784   3.419   7.005   7.945 -0.0843 -0.0614 -0.1465
 1558TIP3    H130785   3.325   7.022   7.949  0.2527  2.1700 -0.3984
 1558TIP3    H230786   3.448   7.007   8.036 -0.1395  0.1725 -0.1339
 1559TIP3   OH230787   2.004   4.868   7.261  0.2918 -1.1940 -0.9585
 1559TIP3    H130788   1.923   4.842   7.219 -1.1246  0.5765  0.5283
 1559TIP3    H230789   2.047   4.926   7.199 -0.7968 -0.2065 -0.8214
 1560TIP3   OH230790   5.941   5.789   2.008  1.0157  0.7605  0.1533
 1560TIP3    H130791   5.849   5.809   2.028  1.3243  0.0050  2.7163
 1560TIP3    H230792   5.983   5.874   1.997  0.3660  1.1673  0.7609
 1561TIP3   OH230793   0.271   7.208   1.774  0.0881  0.4529  0.1019
 1561TIP3    H130794   0.265   7.150   1.850 -0.4014 -0.3687 -0.5540
 1561TIP3    H230795   0.273   7.296   1.812  0.4882  0.0316  1.0911
 1562TIP3   OH230796   1.816   0.849   6.986 -0.3943  0.6155 -0.2620
 1562TIP3    H130797   1.866   0.922   6.949 -1.3389  2.1133  1.2475
 1562TIP3    H230798   1.737   0.890   7.021 -1.6936 -1.3865 -0.7090
 1563TIP3   OH230799   0.057   5.120   5.819 -0.0159  0.3041  0.2967
 1563TIP3    H130800  -0.034   5.148   5.829 -0.2502  0.1075 -1.0395
 1563TIP3    H230801   0.073   5.062   5.894 -0.4541  1.6358  1.4544
 1564TIP3   OH230802   1.941   3.914   0.555 -0.1122  0.7199 -0.1478
 1564TIP3    H130803   2.020   3.867   0.580 -1.6341 -2.1941 -0.3819
 1564TIP3    H230804   1.903   3.944   0.638  1.2730  2.3802 -0.0523
 1565TIP3   OH230805   6.938   5.840   0.726  0.6646 -0.5275  0.3641
 1565TIP3    H130806   6.948   5.846   0.631 -0.0405 -0.4403  0.2892
 1565TIP3    H230807   6.863   5.782   0.739  0.6399 -0.3912  0.8664
 1566TIP3   OH230808   5.159   0.307   7.896  0.2268  0.3344  0.2636
 1566TIP3    H130809   5.171   0.320   7.802  1.8554  1.0952  0.5400
 1566TIP3    H230810   5.248   0.298   7.931 -0.3551 -0.2346  1.6978
 1567TIP3   OH230811   5.002   0.672   6.446 -0.1551  0.4888 -0.2292
 1567TIP3    H130812   4.989   0.608   6.375  0.9137  2.2021 -2.0674
 1567TIP3    H230813   4.937   0.740   6.429 -0.6185  0.4186  1.1224
 1568TIP3   OH230814   5.992   1.659   6.348 -0.0882 -0.2018  0.4007
 1568TIP3    H130815   5.936   1.647   6.271 -2.5906 -0.8163  2.1906
 1568TIP3    H230816   5.949   1.728   6.399  2.1417  1.0205  0.7781
 1569TIP3   OH230817   3.624   5.104   1.665 -0.0026 -0.3364  0.5062
 1569TIP3    H130818   3.559   5.059   1.719 -0.2887  0.8538  1.2057
 1569TIP3    H230819   3.632   5.191   1.705 -0.2577  0.6183 -1.3857
 1570TIP3   OH230820   5.126   5.242   6.272 -0.3117  0.2562  0.1125
 1570TIP3    H130821   5.056   5.293   6.229  1.4321  1.9577 -0.8864
 1570TIP3    H230822   5.178   5.207   6.199  0.0834 -0.7102  0.8388
 1571TIP3   OH230823   1.518   7.486   6.284 -0.2707 -0.0280  0.2847
 1571TIP3    H130824   1.486   7.572   6.311  0.0726  0.1530  0.1119
 1571TIP3    H230825   1.607   7.502   6.252  0.1670 -0.5969  1.1845
 1572TIP3   OH230826   5.159   0.708   7.526  0.6119 -0.1425 -0.6405
 1572TIP3    H130827   5.067   0.691   7.506  0.9835 -2.0203 -0.9638
 1572TIP3    H230828   5.162   0.717   7.621  0.0920 -0.0754 -0.6305
 1573TIP3   OH230829   6.919   2.421   0.618 -0.2693 -0.1455  0.3024
 1573TIP3    H130830   6.833   2.391   0.587 -1.0139  1.0708  1.0951
 1573TIP3    H230831   6.915   2.407   0.713 -1.2652  3.6334  0.9989
 1574TIP3   OH230832   5.204   4.828   5.319  0.2675 -0.5664 -0.2873
 1574TIP3    H130833   5.139   4.894   5.296  0.1670 -0.2962  0.7227
 1574TIP3    H230834   5.274   4.840   5.256 -0.1115 -0.0293 -0.6111
 1575TIP3   OH230835   1.202   1.054   6.608  0.6083  0.2794 -0.0121
 1575TIP3    H130836   1.115   1.052   6.570  0.0490  2.4751  0.9683
 1575TIP3    H230837   1.246   1.127   6.563  1.3504  0.2754  0.6783
 1576TIP3   OH230838   2.266   6.576   5.919 -0.4285 -0.3660  0.3870
 1576TIP3    H130839   2.270   6.484   5.894  0.5386 -0.1859 -0.1646
 1576TIP3    H230840   2.173   6.599   5.910 -0.5819 -1.1163 -0.0872
 1577TIP3   OH230841   0.802   1.668   6.392  0.2629 -0.2231 -0.4198
 1577TIP3    H130842   0.737   1.729   6.429  1.8971  1.7109 -0.5690
 1577TIP3    H230843   0.883   1.688   6.438  0.8417 -2.4888 -0.3359
 1578TIP3   OH230844   1.534   6.041   6.403  0.8929 -0.1349 -0.6382
 1578TIP3    H130845   1.455   6.040   6.349 -0.1838  3.0715  0.6240
 1578TIP3    H230846   1.579   6.122   6.378  0.4001  1.4713  2.9732
 1579TIP3   OH230847   4.895   7.283   0.737  0.1236 -0.0648  0.5388
 1579TIP3    H130848   4.866   7.371   0.759 -1.6855 -0.8129  1.4445
 1579TIP3    H230849   4.877   7.232   0.816  1.6731 -1.1523  0.2444
 1580TIP3   OH230850   7.521   7.654   5.830 -0.0268 -0.6385  0.1899
 1580TIP3    H130851   7.465   7.727   5.804  0.8551 -0.1437 -0.3528
 1580TIP3    H230852   7.542   7.609   5.748 -0.4735 -1.4493  0.5053
 1581TIP3   OH230853   0.595   0.928   5.499 -0.1126  0.7161 -0.2289
 1581TIP3    H130854   0.656   0.861   5.530 -0.7763  0.0884 -0.2349
 1581TIP3    H230855   0.587   0.989   5.572  0.6164  0.8789 -0.2755
 1582TIP3   OH230856   4.508   3.459   0.343 -0.0172 -0.1464  0.0068
 1582TIP3    H130857   4.465   3.374   0.334 -0.6558 -0.0397  1.6056
 1582TIP3    H230858   4.451   3.520   0.296 -0.7134 -0.2794  0.6639
 1583TIP3   OH230859   5.757   6.618   2.054 -0.1829 -0.5235 -0.0228
 1583TIP3    H130860   5.732   6.675   2.127 -0.9086 -1.1026  0.1854
 1583TIP3    H230861   5.707   6.651   1.979 -0.8785 -1.0992  0.1797
 1584TIP3   OH230862   3.014   3.710   1.775  0.2086  0.0510 -0.7064
 1584TIP3    H130863   3.018   3.623   1.814  0.8611  0.7593  0.8891
 1584TIP3    H230864   3.045   3.698   1.685  1.9313 -1.0844 -0.0112
 1585TIP3   OH230865   3.249   3.239   1.360  0.3111  0.2444 -0.0421
 1585TIP3    H130866   3.324   3.185   1.385  0.9972  0.3228 -1.7945
 1585TIP3    H230867   3.209   3.193   1.286  0.0309  1.3831 -0.6223
 1586TIP3   OH230868   3.203   3.526   6.594  0.4838  0.1753  0.3903
 1586TIP3    H130869   3.241   3.505   6.679  0.2793  1.1094  0.7251
 1586TIP3    H230870   3.111   3.502   6.602  0.7019 -0.8311  0.0285
 1587TIP3   OH230871   6.857   6.010   1.296  0.0307  0.6612  0.3243
 1587TIP3    H130872   6.839   6.044   1.208 -1.6578 -0.3068  0.2399
 1587TIP3    H230873   6.944   5.971   1.290 -0.9565 -1.4173 -1.5958
 1588TIP3   OH230874   1.786   7.291   0.487 -0.4138 -0.0091 -0.6461
 1588TIP3    H130875   1.829   7.315   0.570 -1.9526 -0.2945  0.2761
 1588TIP3    H230876   1.774   7.374   0.441 -0.6478  0.3147 -0.0154
 1589TIP3   OH230877   4.182   6.949   6.891 -0.0848  0.4339 -0.2116
 1589TIP3    H130878   4.147   6.958   6.979  1.4749  0.4698  0.4243
 1589TIP3    H230879   4.180   6.855   6.873  1.9422  0.1269  0.8916
 1590TIP3   OH230880   7.366   5.237   7.746 -0.1974 -0.0295 -0.2581
 1590TIP3    H130881   7.284   5.199   7.776  0.1747  0.1269  1.0145
 1590TIP3    H230882   7.415   5.163   7.711 -0.4074 -0.3335  0.0804
 1591TIP3   OH230883   1.794   8.096   2.015 -0.2052  0.0207  0.3525
 1591TIP3    H130884   1.799   8.174   1.959 -0.1017 -1.8136 -2.3523
 1591TIP3    H230885   1.701   8.073   2.017 -0.1246 -0.2987  0.4176
 1592TIP3   OH230886   6.668   2.545   6.385  0.1764  0.3963  0.1314
 1592TIP3    H130887   6.688   2.470   6.441  1.2704  0.7418  0.2369
 1592TIP3    H230888   6.632   2.610   6.444  2.1900  1.1054  0.6604
 1593TIP3   OH230889   1.015   0.361   1.930  0.1993 -0.3578  0.2058
 1593TIP3    H130890   0.983   0.271   1.934 -0.3722 -0.1265  0.8700
 1593TIP3    H230891   1.080   0.367   2.001  1.9423 -0.8831 -1.2494
 1594TIP3   OH230892   3.544   2.086   6.594  0.0850 -0.4536 -0.3218
 1594TIP3    H130893   3.507   2.170   6.567  0.9761 -0.5098 -1.8204
 1594TIP3    H230894   3.468   2.033   6.618 -0.5173  0.6163  0.1872
 1595TIP3   OH230895   0.466   5.628   1.690  0.4759  0.4259 -0.1437
 1595TIP3    H130896   0.375   5.604   1.671  0.3435  1.0604 -0.3255
 1595TIP3    H230897   0.518   5.564   1.641  0.1527 -0.9111  1.1622
 1596TIP3   OH230898   7.746   2.788   0.240 -0.5940 -0.1672  0.1157
 1596TIP3    H130899   7.825   2.793   0.185 -0.5355 -3.3882 -0.2899
 1596TIP3    H230900   7.770   2.835   0.320  1.6520 -0.8253 -0.0853
 1597TIP3   OH230901   5.574   4.055   0.480  0.0429 -0.1247  0.2666
 1597TIP3    H130902   5.551   4.056   0.573  0.0657  0.1222  0.2705
 1597TIP3    H230903   5.491   4.066   0.434 -0.2045 -1.9160  0.2053
 1598TIP3   OH230904   3.361   3.500   7.264 -0.0492 -0.2429  0.0449
 1598TIP3    H130905   3.453   3.474   7.256 -0.2215 -0.9141  0.1792
 1598TIP3    H230906   3.362   3.574   7.325  0.3284 -0.7144  0.6232
 1599TIP3   OH230907   6.095   4.345   5.689  0.1075 -0.1550 -0.1777
 1599TIP3    H130908   6.048   4.399   5.625  0.5421 -0.2839 -0.6099
 1599TIP3    H230909   6.126   4.407   5.755 -1.2137 -0.1457  0.4582
 1600TIP3   OH230910   3.692   2.256   7.479 -0.3324 -0.0801  0.0021
 1600TIP3    H130911   3.745   2.185   7.442 -0.7861 -0.5630  0.2631
 1600TIP3    H230912   3.725   2.266   7.568 -0.2582  0.0513 -0.0398
 1601TIP3   OH230913   5.441   0.491   6.116 -0.3394  0.2953 -0.4516
 1601TIP3    H130914   5.368   0.471   6.058 -1.6204 -1.9270  1.7605
 1601TIP3    H230915   5.519   0.467   6.066 -1.4358 -2.2086 -1.0841
 1602TIP3   OH230916   1.693   2.113   7.422 -0.3150  0.2317  0.2697
 1602TIP3    H130917   1.739   2.161   7.353  0.4601 -0.6705  0.1566
 1602TIP3    H230918   1.605   2.098   7.386 -0.1227  0.3467 -0.2516
 1603TIP3   OH230919   3.659   2.055   7.004  0.4013  0.4855 -0.3365
 1603TIP3    H130920   3.653   2.039   7.098  0.2551  0.6851 -0.3105
 1603TIP3    H230921   3.636   1.971   6.964 -1.1995  0.8264 -0.2103
 1604TIP3   OH230922   5.230   3.987   2.248  0.2015 -0.4709  0.4907
 1604TIP3    H130923   5.246   3.903   2.290 -1.6853 -1.3454 -0.4218
 1604TIP3    H230924   5.211   3.965   2.156 -1.2163  0.8129  0.4264
 1605TIP3   OH230925   2.732   4.661   0.685  0.5735 -0.3398  0.1779
 1605TIP3    H130926   2.801   4.728   0.684  1.6836 -1.4551 -0.9776
 1605TIP3    H230927   2.768   4.589   0.634 -0.6860 -1.7501  1.2127
 1606TIP3   OH230928   5.202   4.401   0.751 -0.1741  0.6348 -0.1410
 1606TIP3    H130929   5.283   4.354   0.770  1.2343  2.8287 -0.3979
 1606TIP3    H230930   5.176   4.371   0.664  1.1808  0.9428 -0.6719
 1607TIP3   OH230931   1.459   5.632   6.311 -0.2894 -0.1576 -0.4509
 1607TIP3    H130932   1.392   5.567   6.333 -1.9218  0.6906 -2.6079
 1607TIP3    H230933   1.541   5.585   6.320 -1.0493 -1.1705  2.5711
 1608TIP3   OH230934   0.884   0.150   5.329  0.2427  0.2007 -0.4625
 1608TIP3    H130935   0.829   0.185   5.259 -0.9513  0.7937  0.7316
 1608TIP3    H230936   0.886   0.056   5.313  0.2674  0.3600 -1.4745
 1609TIP3   OH230937   1.312   1.861   1.129  0.1477  0.3283 -0.5325
 1609TIP3    H130938   1.376   1.893   1.066 -0.3974  0.4367 -1.0309
 1609TIP3    H230939   1.340   1.899   1.212  3.0756 -2.7248  0.1084
 1610TIP3   OH230940   5.625   2.180   6.983  0.0306 -0.3775 -0.7852
 1610TIP3    H130941   5.609   2.275   6.981 -0.7792 -0.5061 -2.7425
 1610TIP3    H230942   5.582   2.150   7.063  2.8678  1.2586  1.5484
 1611TIP3   OH230943   3.000   0.123   7.070  0.0867 -0.6098  0.0932
 1611TIP3    H130944   3.026   0.032   7.064  2.6688  0.0080  0.3996
 1611TIP3    H230945   3.056   0.169   7.007 -0.1529  0.9032  0.9102
 1612TIP3   OH230946   1.382   2.762   7.590 -1.0192 -0.1158 -0.1677
 1612TIP3    H130947   1.288   2.753   7.571 -0.6188 -0.5974 -2.1521
 1612TIP3    H230948   1.403   2.682   7.638 -0.7539 -2.5860 -3.9157
 1613TIP3   OH230949   4.779   4.263   6.415 -0.5607 -0.2432  0.3694
 1613TIP3    H130950   4.691   4.302   6.414 -1.0584 -1.3239 -0.0146
 1613TIP3    H230951   4.823   4.307   6.488 -0.9122  1.3484 -0.3244
 1614TIP3   OH230952   5.630   3.512   1.701 -0.0571 -0.3269 -0.3188
 1614TIP3    H130953   5.647   3.591   1.753 -3.3113 -0.4811  1.2011
 1614TIP3    H230954   5.686   3.445   1.741 -3.0298 -0.6693  3.8684
 1615TIP3   OH230955   4.431   6.012   0.045 -0.6533  0.7934 -0.2718
 1615TIP3    H130956   4.479   5.988   0.125  0.4979 -1.1987 -1.4867
 1615TIP3    H230957   4.496   6.058  -0.008 -0.9866  0.8113 -0.6609
 1616TIP3   OH230958   0.639   4.905   7.585  0.5724 -0.0662 -0.6947
 1616TIP3    H130959   0.629   4.984   7.532 -2.3630  0.8924  1.0462
 1616TIP3    H230960   0.721   4.919   7.633  0.7940  1.2850 -1.4233
 1617TIP3   OH230961   1.367   4.808   0.578  0.1757 -0.6264  0.2375
 1617TIP3    H130962   1.356   4.794   0.484  0.6440 -2.3566  0.4133
 1617TIP3    H230963   1.286   4.776   0.618  0.3160 -0.6725  0.4912
 1618TIP3   OH230964   1.385   4.640   7.441  0.0660 -0.0812 -0.3456
 1618TIP3    H130965   1.327   4.563   7.444 -0.4676  0.3461  1.6269
 1618TIP3    H230966   1.441   4.631   7.518 -1.1738  2.3530  0.9478
 1619TIP3   OH230967   1.139   5.722   6.945 -0.3144  0.5585 -0.3466
 1619TIP3    H130968   1.156   5.630   6.929  0.3822  0.7641 -0.8223
 1619TIP3    H230969   1.109   5.726   7.036  1.6022  0.1019  0.3283
 1620TIP3   OH230970   6.142   7.988   1.395  0.3671 -0.3442 -0.0282
 1620TIP3    H130971   6.076   8.019   1.332 -0.3665 -0.8339  0.4925
 1620TIP3    H230972   6.157   7.897   1.370  1.1784 -0.1119 -0.4144
 1621TIP3   OH230973   0.681   8.108   7.884  0.2124  0.4366 -0.3195
 1621TIP3    H130974   0.603   8.153   7.916  0.2892  0.1687  0.2529
 1621TIP3    H230975   0.733   8.177   7.843 -0.9027  0.4125 -1.8757
 1622TIP3   OH230976   6.798   4.697   5.842  0.1654  0.2198  0.2525
 1622TIP3    H130977   6.795   4.779   5.891  0.8625  0.2066  0.3178
 1622TIP3    H230978   6.891   4.679   5.829  0.0230 -0.6074  0.3067
 1623TIP3   OH230979   2.826   7.204   0.725 -0.0446 -0.4326  0.2321
 1623TIP3    H130980   2.884   7.256   0.781 -0.7373 -1.5855  2.0983
 1623TIP3    H230981   2.740   7.245   0.736  0.0252  0.0706 -0.9778
 1624TIP3   OH230982   2.086   7.654   1.359  0.8155  0.4313  0.3843
 1624TIP3    H130983   2.016   7.720   1.357 -1.0478 -1.3633  2.0675
 1624TIP3    H230984   2.051   7.581   1.308  0.8843 -0.9486  2.2220
 1625TIP3   OH230985   3.079   1.773   1.350  0.1766 -0.7808 -0.5272
 1625TIP3    H130986   3.078   1.745   1.441  0.2274 -0.2357 -0.3559
 1625TIP3    H230987   3.144   1.717   1.308  2.5376  1.0755  0.4552
 1626TIP3   OH230988   4.654   7.476   2.049 -0.2749 -0.1928 -0.3504
 1626TIP3    H130989   4.707   7.548   2.085 -0.7472  0.0130 -0.0601
 1626TIP3    H230990   4.567   7.514   2.038 -0.2097 -0.3455 -1.4404
 1627TIP3   OH230991   7.599   1.950   6.064  0.3406  0.5667 -0.4690
 1627TIP3    H130992   7.558   2.015   6.006  1.2090 -0.4139 -2.2688
 1627TIP3    H230993   7.581   1.866   6.022 -1.2683 -0.4822  2.1291
 1628TIP3   OH230994   3.144   2.586   7.198 -0.3465  0.3919 -0.2048
 1628TIP3    H130995   3.209   2.533   7.243  1.8236  2.0609 -1.1924
 1628TIP3    H230996   3.111   2.645   7.266  0.0084  0.3029  0.0487
 1629TIP3   OH230997   4.631   6.200   0.673 -0.2563  0.0769 -0.8947
 1629TIP3    H130998   4.705   6.258   0.652 -0.2379  1.3858  2.2256
 1629TIP3    H230999   4.562   6.227   0.613  0.2032  2.4919 -0.4617
 1630TIP3   OH231000   6.548   0.796   5.824  0.3849 -0.1691 -0.1358
 1630TIP3    H131001   6.555   0.890   5.841  0.2721 -0.1572 -0.1537
 1630TIP3    H231002   6.551   0.756   5.910 -1.9549 -0.0025  0.0756
 1631TIP3   OH231003   3.569   4.643   1.140 -0.0929 -0.2920 -0.0920
 1631TIP3    H131004   3.624   4.718   1.162  1.4151 -1.2022 -0.5892
 1631TIP3    H231005   3.541   4.609   1.224  1.9888 -1.1186  0.3458
 1632TIP3   OH231006   7.467   4.673   1.772  0.0728 -0.0898  0.0829
 1632TIP3    H131007   7.480   4.747   1.832 -1.2451 -1.6997  2.5147
 1632TIP3    H231008   7.535   4.610   1.797  1.2696  0.2379 -2.0570
 1633TIP3   OH231009   4.946   2.206   1.181  0.2974  0.3983 -0.1953
 1633TIP3    H131010   4.929   2.147   1.108 -1.4397  0.3361  0.2126
 1633TIP3    H231011   5.039   2.195   1.200  0.7078  0.1569 -2.1507
 1634TIP3   OH231012   5.681   6.452   1.229 -0.1581  0.1870  0.3833
 1634TIP3    H131013   5.682   6.520   1.296 -1.5954  0.8858 -0.2661
 1634TIP3    H231014   5.673   6.370   1.277  0.5894  0.5429  1.1301
 1635TIP3   OH231015   3.592   3.044   2.137 -0.3400  0.1392 -0.2298
 1635TIP3    H131016   3.527   3.004   2.078  1.3544 -1.0284 -1.3996
 1635TIP3    H231017   3.615   3.126   2.095 -0.2852  0.0544 -0.3656
 1636TIP3   OH231018   0.500   6.248   1.274  0.2922  0.1710 -0.5296
 1636TIP3    H131019   0.494   6.224   1.366 -1.5111 -0.3909 -0.7537
 1636TIP3    H231020   0.494   6.344   1.274 -1.2193  0.0956 -0.1304
 1637TIP3   OH231021   3.155   1.159   7.848 -0.2695 -0.5586  0.5007
 1637TIP3    H131022   3.097   1.161   7.772 -1.3501 -0.3466  1.3130
 1637TIP3    H231023   3.142   1.243   7.891  1.0058 -0.3069  0.4514
 1638TIP3   OH231024   6.264   7.511   1.236  0.4712 -0.1679 -0.3709
 1638TIP3    H131025   6.219   7.428   1.224  0.6009 -0.1375 -1.1533
 1638TIP3    H231026   6.309   7.503   1.320 -0.7536 -0.2984  0.2842
 1639TIP3   OH231027   4.235   4.730   6.878  0.4059  0.2294  0.0068
 1639TIP3    H131028   4.243   4.769   6.965 -1.7841 -0.9106  0.7969
 1639TIP3    H231029   4.157   4.771   6.840  0.3821 -0.4698 -0.7384
 1640TIP3   OH231030   0.993   5.550   0.575  0.2215  0.1652 -0.4863
 1640TIP3    H131031   0.999   5.531   0.482 -0.6892  0.5943 -0.6454
 1640TIP3    H231032   1.083   5.540   0.608  0.6521  0.5493 -1.5084
 1641TIP3   OH231033   2.978   1.814   1.080  0.3619  0.0905 -0.0056
 1641TIP3    H131034   2.989   1.813   1.175 -1.5494  0.4398  0.2563
 1641TIP3    H231035   3.008   1.900   1.053 -0.3507  0.5002  0.4770
 1642TIP3   OH231036   7.374   1.483   6.700  0.1197 -0.3749 -0.2971
 1642TIP3    H131037   7.452   1.499   6.648 -0.2751 -1.0705 -1.1448
 1642TIP3    H231038   7.393   1.403   6.749  0.1341 -0.2471 -0.0911
 1643TIP3   OH231039   7.719   6.038   7.042 -0.0326 -0.1201 -0.1685
 1643TIP3    H131040   7.730   5.943   7.043  1.2604  0.0041 -0.3603
 1643TIP3    H231041   7.704   6.060   6.950 -0.7410 -0.1742 -0.0685
 1644TIP3   OH231042   5.222   5.029   2.472 -0.2160 -0.5178 -0.1307
 1644TIP3    H131043   5.199   5.121   2.461  1.7259  0.0633  0.2697
 1644TIP3    H231044   5.248   5.020   2.563 -2.7633 -2.0970  0.5416
 1645TIP3   OH231045   2.749   4.502   7.312  0.2859 -0.3276  0.5356
 1645TIP3    H131046   2.802   4.548   7.377 -0.4374 -0.6405  1.3688
 1645TIP3    H231047   2.717   4.572   7.254  1.2189 -0.0881  0.2975
 1646TIP3   OH231048   6.641   8.061   7.188  0.0607 -0.1792 -0.2992
 1646TIP3    H131049   6.706   8.099   7.247 -0.6012  0.2869  0.1452
 1646TIP3    H231050   6.562   8.054   7.242 -0.2360 -0.8183 -0.8063
 1647TIP3   OH231051   2.284   6.913   1.199 -0.1203 -0.1967 -0.4674
 1647TIP3    H131052   2.250   6.996   1.234 -1.2240 -0.2747 -1.3080
 1647TIP3    H231053   2.315   6.935   1.111  2.6528 -0.0044  0.4486
 1648TIP3   OH231054   5.310   3.960   7.513 -0.1747 -0.0534  0.4285
 1648TIP3    H131055   5.397   3.997   7.528 -0.0484 -0.1442 -0.0850
 1648TIP3    H231056   5.274   4.010   7.441  0.3068 -1.4168 -0.8115
 1649TIP3   OH231057   0.613   7.282   0.425 -0.3699  0.2883  0.2883
 1649TIP3    H131058   0.693   7.232   0.410 -0.0840  1.3229 -2.1077
 1649TIP3    H231059   0.613   7.349   0.356 -1.8101  2.2434  2.0463
 1650TIP3   OH231060   7.533   4.888   7.023 -0.3416  0.0130  0.0541
 1650TIP3    H131061   7.459   4.942   7.050  0.4339  0.0849  2.2555
 1650TIP3    H231062   7.493   4.813   6.979 -1.5037  1.5974 -1.8103
 1651TIP3   OH231063   6.645   7.129   0.132  0.4134 -0.3382  0.1568
 1651TIP3    H131064   6.698   7.189   0.184  0.6869 -0.3985 -0.0543
 1651TIP3    H231065   6.603   7.072   0.197 -0.4270  0.5397  0.4087
 1652TIP3   OH231066   7.753   7.937   6.779 -0.1279 -0.8753  0.2115
 1652TIP3    H131067   7.759   8.010   6.718  0.0913 -1.0658  0.0011
 1652TIP3    H231068   7.671   7.894   6.758  0.1548 -1.2021 -0.2518
 1653TIP3   OH231069   6.863   3.503   1.260  0.1840 -0.3116  0.0080
 1653TIP3    H131070   6.857   3.408   1.274 -0.1761 -0.1661  0.9552
 1653TIP3    H231071   6.772   3.531   1.253  0.1767  0.2159  1.7318
 1654TIP3   OH231072   2.251   6.479   0.929 -0.3596  0.1051  0.3282
 1654TIP3    H131073   2.229   6.535   1.003 -0.5119  0.3514  0.0947
 1654TIP3    H231074   2.201   6.399   0.944 -0.4019  0.1587  0.4795
 1655TIP3   OH231075   7.912   5.512   0.431 -0.2816  0.8173 -0.4092
 1655TIP3    H131076   7.889   5.529   0.340  1.1853  0.1458 -0.9322
 1655TIP3    H231077   8.007   5.503   0.431  0.0934  3.4838  1.6468
 1656TIP3   OH231078   6.499   7.735   5.405  0.1806  0.0800  0.6940
 1656TIP3    H131079   6.410   7.744   5.440  0.2701 -0.5594  1.1066
 1656TIP3    H231080   6.547   7.691   5.475  0.5037 -0.7450 -0.0347
 1657TIP3   OH231081   5.562   3.762   1.890 -0.3375  0.3660  0.1928
 1657TIP3    H131082   5.577   3.839   1.944  0.8280 -1.1301  2.1377
 1657TIP3    H231083   5.639   3.757   1.834 -0.6064  0.8242 -0.2224
 1658TIP3   OH231084   7.374   7.030   1.643  0.1293  0.3271  0.3512
 1658TIP3    H131085   7.374   7.122   1.618 -1.9941  0.3667  0.3470
 1658TIP3    H231086   7.347   7.030   1.735 -0.3478 -0.3136  0.2163
 1659TIP3   OH231087   6.872   7.307   6.836  0.0386  0.2312  0.0877
 1659TIP3    H131088   6.853   7.401   6.833 -0.2551  0.1423 -1.4654
 1659TIP3    H231089   6.801   7.267   6.786 -1.0409 -1.0507  2.4735
 1660TIP3   OH231090   4.482   1.806   7.889  0.6202  0.2838 -0.0996
 1660TIP3    H131091   4.418   1.876   7.876 -0.9248 -1.0139  0.2107
 1660TIP3    H231092   4.498   1.772   7.800  1.3536  0.9784 -0.2472
 1661TIP3   OH231093   6.097   7.634   0.662 -0.1250  0.1181 -0.4874
 1661TIP3    H131094   6.079   7.548   0.623  1.1133  0.8284 -2.8351
 1661TIP3    H231095   6.171   7.618   0.721  0.0407 -0.4436 -0.8380
 1662TIP3   OH231096   4.786   3.587   7.555 -0.0405  0.0587 -0.1650
 1662TIP3    H131097   4.748   3.524   7.616 -0.7354 -0.6460 -1.2943
 1662TIP3    H231098   4.760   3.673   7.589  1.1448 -0.2059  1.5471
 1663TIP3   OH231099   1.246   5.123   6.573  0.0091  0.6986  0.7609
 1663TIP3    H131100   1.261   5.035   6.606  0.6054  0.0221 -1.1716
 1663TIP3    H231101   1.325   5.171   6.595 -0.4454  0.8678  2.0948
 1664TIP3   OH231102   1.992   1.803   6.505  0.0513  0.2039 -0.2658
 1664TIP3    H131103   2.018   1.714   6.529  1.1522  0.5061 -0.2936
 1664TIP3    H231104   2.026   1.816   6.417 -0.1619  0.6269 -0.2905
 1665TIP3   OH231105   4.062   1.340   7.806 -0.3179 -0.1478 -0.2082
 1665TIP3    H131106   4.081   1.395   7.882 -1.7697  1.3601 -0.8633
 1665TIP3    H231107   3.968   1.322   7.813 -0.2770 -0.8196 -1.1387
 1666TIP3   OH231108   7.258   7.590   1.551  0.3369  1.1535  0.3128
 1666TIP3    H131109   7.345   7.588   1.591  0.0280 -0.8158  0.9887
 1666TIP3    H231110   7.270   7.546   1.467  0.0341  1.0187  0.3405
 1667TIP3   OH231111   4.580   3.952   0.707  0.5454  0.2969  0.0654
 1667TIP3    H131112   4.603   4.023   0.767 -0.8039  0.5662  0.2776
 1667TIP3    H231113   4.522   3.896   0.757 -0.4123  0.3996 -0.8958
 1668TIP3   OH231114   1.434   7.598   6.988 -0.3580  0.1396  0.3186
 1668TIP3    H131115   1.395   7.522   6.945  0.0672 -0.2251  0.5699
 1668TIP3    H231116   1.396   7.673   6.942  1.8061 -0.2270 -2.3262
 1669TIP3   OH231117   7.864   1.474   7.375  0.0221 -0.2010 -0.1658
 1669TIP3    H131118   7.778   1.439   7.399  0.5020 -0.0691  1.9075
 1669TIP3    H231119   7.885   1.536   7.445  1.7633 -0.1317 -0.7019
 1670TIP3   OH231120   1.197   0.266   7.656 -0.2111 -0.2013  0.1826
 1670TIP3    H131121   1.143   0.240   7.731 -2.0963 -1.1157 -1.3992
 1670TIP3    H231122   1.146   0.334   7.612  0.6335 -0.0397 -0.5811
 1671TIP3   OH231123   3.497   6.126   1.005  0.0097 -0.8533  0.4751
 1671TIP3    H131124   3.497   6.186   1.079 -1.7692  0.3873 -0.4696
 1671TIP3    H231125   3.585   6.089   1.005  0.2096 -0.5701  2.9125
 1672TIP3   OH231126   4.855   7.102   1.944  0.0201 -0.0466  0.1224
 1672TIP3    H131127   4.827   7.066   1.860  2.4626  1.5446 -1.4957
 1672TIP3    H231128   4.775   7.140   1.981 -0.9045  0.2974 -2.0798
 1673TIP3   OH231129   5.265   3.442   0.446 -0.0842  0.3329  0.0470
 1673TIP3    H131130   5.240   3.488   0.366 -0.5439  0.0658  0.0353
 1673TIP3    H231131   5.332   3.381   0.418 -0.8598 -0.3762 -0.3082
 1674TIP3   OH231132   3.983   5.750   7.724  0.6034 -0.2003 -0.1472
 1674TIP3    H131133   3.916   5.817   7.716  0.4461 -0.4303 -0.8216
 1674TIP3    H231134   4.045   5.768   7.653 -0.0414 -1.4258 -1.0496
 1675TIP3   OH231135   0.829   3.439   7.873 -0.0931  0.2228  0.1232
 1675TIP3    H131136   0.865   3.363   7.828  1.4633  1.6712 -1.1711
 1675TIP3    H231137   0.837   3.418   7.966  1.2091 -0.7986 -0.2024
 1676TIP3   OH231138   1.794   7.645   5.275  0.2474  0.1770  0.2933
 1676TIP3    H131139   1.788   7.713   5.342 -1.2070 -0.6489  1.0711
 1676TIP3    H231140   1.703   7.622   5.256  0.6678 -0.3848 -1.1785
 1677TIP3   OH231141   3.761   7.693   1.705  0.1099  0.3125 -0.5900
 1677TIP3    H131142   3.765   7.654   1.618  1.8072  0.7876 -0.7645
 1677TIP3    H231143   3.808   7.776   1.696 -1.8224  1.5584  0.2081
 1678TIP3   OH231144   6.985   7.054   6.613 -0.1019  0.2482 -0.0676
 1678TIP3    H131145   6.957   7.067   6.703  0.8576 -3.6239  0.9649
 1678TIP3    H231146   6.907   7.073   6.560 -1.0790  1.2438  1.6542
 1679TIP3   OH231147   1.599   3.113   1.349  0.2139 -0.4627 -0.6288
 1679TIP3    H131148   1.611   3.196   1.395  1.3438 -1.1147  0.3008
 1679TIP3    H231149   1.651   3.050   1.399 -1.5360 -1.9836 -0.6350
 1680TIP3   OH231150   3.311   0.667   7.669  0.4125  0.0753  0.0988
 1680TIP3    H131151   3.324   0.641   7.760  0.1707  3.3508  1.1876
 1680TIP3    H231152   3.222   0.637   7.648  1.2294 -2.6329  0.0959
 1681TIP3   OH231153   7.652   7.465   0.659 -0.6183 -0.2895  0.0610
 1681TIP3    H131154   7.655   7.542   0.601 -1.1534 -1.4032 -1.4970
 1681TIP3    H231155   7.685   7.498   0.743  0.6341  1.2692 -0.9779
 1682TIP3   OH231156   1.834   6.635   1.022 -0.4292  0.6406 -0.4009
 1682TIP3    H131157   1.813   6.721   0.985 -2.4001  1.2398  1.8441
 1682TIP3    H231158   1.780   6.630   1.101  1.4583 -1.6806  0.8441
 1683TIP3   OH231159   6.125   1.196   0.589 -0.5709  0.2006 -0.7372
 1683TIP3    H131160   6.113   1.243   0.672 -1.5859 -0.0522 -0.7231
 1683TIP3    H231161   6.195   1.244   0.544  1.1377 -0.6042  0.9389
 1684TIP3   OH231162   4.245   1.378   7.186 -0.0977 -0.2671  0.0345
 1684TIP3    H131163   4.161   1.380   7.138 -0.5364 -1.5696  0.7013
 1684TIP3    H231164   4.222   1.345   7.273  1.0605 -0.2746  0.3484
 1685TIP3   OH231165   6.941   8.060   6.146 -0.6147  0.1185 -0.3534
 1685TIP3    H131166   6.889   8.132   6.181 -0.8993  0.6758 -1.8347
 1685TIP3    H231167   6.995   8.032   6.219 -0.0660  2.2348  0.1390
 1686TIP3   OH231168   5.213   1.949   1.047 -0.3661 -0.4413 -0.1298
 1686TIP3    H131169   5.199   1.878   0.985  0.7751 -0.3732 -0.4868
 1686TIP3    H231170   5.205   2.029   0.995  2.5045 -0.4087 -0.6839
 1687TIP3   OH231171   4.273   4.318   6.392  0.4288 -0.2646 -0.0064
 1687TIP3    H131172   4.226   4.378   6.336 -0.7577 -1.5139 -0.4038
 1687TIP3    H231173   4.212   4.298   6.463  0.9935 -0.5765  0.4013
 1688TIP3   OH231174   1.617   6.853   6.213 -0.2922  0.1959 -0.7319
 1688TIP3    H131175   1.592   6.853   6.306  1.1655 -0.7105 -0.3063
 1688TIP3    H231176   1.549   6.905   6.170 -0.2999  1.7363  1.0249
 1689TIP3   OH231177   2.821   4.729   5.424  0.4061  0.0286  0.0473
 1689TIP3    H131178   2.736   4.715   5.466  0.5568  1.5242  0.9443
 1689TIP3    H231179   2.816   4.818   5.388  1.4246 -0.0337 -0.2987
 1690TIP3   OH231180   5.950   1.028   5.508  0.2347  0.1567  1.0163
 1690TIP3    H131181   5.951   1.116   5.470  1.1685  0.0378  0.7341
 1690TIP3    H231182   5.892   1.035   5.583 -0.5848  0.7392  0.3587
 1691TIP3   OH231183   6.066   4.353   1.948 -0.1217  0.5961 -0.5870
 1691TIP3    H131184   6.118   4.391   1.877  0.0592 -0.3836 -0.9858
 1691TIP3    H231185   6.075   4.259   1.937 -2.0848  0.3863 -0.7517
 1692TIP3   OH231186   6.417   3.253   6.500 -0.2453  0.0592  0.4085
 1692TIP3    H131187   6.393   3.217   6.415 -2.2866 -2.1130  1.7620
 1692TIP3    H231188   6.337   3.295   6.532 -0.5581 -1.9238  2.4936
 1693TIP3   OH231189   3.421   5.146   0.049  0.5682 -0.5104  0.1971
 1693TIP3    H131190   3.354   5.209   0.023  0.9039  0.2881  1.2084
 1693TIP3    H231191   3.503   5.184   0.017  0.5975 -1.3295 -0.7601
 1694TIP3   OH231192   4.185   7.638   6.895  0.2506 -0.7205 -1.4182
 1694TIP3    H131193   4.253   7.585   6.936 -0.7088 -0.8517  0.0621
 1694TIP3    H231194   4.144   7.686   6.967 -1.7429 -1.2427 -2.1256
 1695TIP3   OH231195   7.229   3.356   0.174 -0.2382  0.7100 -0.6867
 1695TIP3    H131196   7.222   3.419   0.245 -0.7412  0.2355 -0.3162
 1695TIP3    H231197   7.320   3.324   0.179 -0.8972 -1.0443  1.2270
 1696TIP3   OH231198   5.780   2.071   5.978 -0.1750  0.1968  0.0341
 1696TIP3    H131199   5.709   2.054   6.041 -1.7547  1.6791 -1.2312
 1696TIP3    H231200   5.801   2.163   5.991  1.4936 -0.2016  0.3088
 1697TIP3   OH231201   7.093   1.737   7.014 -0.7942  0.0370  0.6002
 1697TIP3    H131202   7.050   1.815   6.979 -0.4434  0.6215  1.4314
 1697TIP3    H231203   7.182   1.740   6.978 -1.3166 -1.0038 -0.8667
 1698TIP3   OH231204   6.301   5.149   0.624 -0.2636 -0.0919  0.0419
 1698TIP3    H131205   6.346   5.083   0.677 -0.1098 -0.9061 -1.0727
 1698TIP3    H231206   6.353   5.229   0.636 -0.8415  0.0394  1.9429
 1699TIP3   OH231207   4.799   3.246   6.260 -0.5906 -0.4098  0.2140
 1699TIP3    H131208   4.771   3.158   6.283  1.3237 -1.3594 -0.8569
 1699TIP3    H231209   4.866   3.268   6.324 -1.6565  0.6729  1.0114
 1700TIP3   OH231210   1.987   7.968   5.913  0.0807 -0.2883  0.1261
 1700TIP3    H131211   2.049   8.028   5.954  0.6235 -0.3867 -0.5418
 1700TIP3    H231212   1.970   8.005   5.826 -2.0600  0.6275  0.8706
 1701TIP3   OH231213   2.438   1.336   7.943 -0.1960 -0.4342 -0.2263
 1701TIP3    H131214   2.462   1.344   8.036  0.1654  0.0883 -0.3594
 1701TIP3    H231215   2.430   1.242   7.928  0.0006 -0.5326  0.2718
 1702TIP3   OH231216   5.686   2.214   7.643  0.4567  0.2445  0.0530
 1702TIP3    H131217   5.655   2.144   7.701 -0.3666  1.7783  1.5482
 1702TIP3    H231218   5.730   2.276   7.701  2.0481  0.5265 -1.3787
 1703TIP3   OH231219   3.730   8.011   2.034  0.0287  0.1765 -0.2125
 1703TIP3    H131220   3.732   7.916   2.026 -0.6776  0.1346  0.0220
 1703TIP3    H231221   3.769   8.043   1.953  1.2354 -0.3164  0.1624
 1704TIP3   OH231222   5.063   4.028   7.693 -0.3518 -0.0652  0.1202
 1704TIP3    H131223   5.028   4.116   7.691 -0.4138 -0.1002 -0.6126
 1704TIP3    H231224   5.150   4.037   7.731 -0.5838  0.2251  0.5862
 1705TIP3   OH231225   7.416   4.407   1.430 -0.1875 -0.0294  0.2008
 1705TIP3    H131226   7.356   4.384   1.502  0.9432 -0.4849  1.0254
 1705TIP3    H231227   7.358   4.428   1.357 -1.3647 -0.0295  1.1003
 1706TIP3   OH231228   1.549   6.642   6.490  0.5444  0.1257  0.2865
 1706TIP3    H131229   1.517   6.577   6.553 -0.0531  0.1640  0.0324
 1706TIP3    H231230   1.517   6.726   6.524 -0.9233  0.0236 -0.7338
 1707TIP3   OH231231   7.942   8.077   1.681 -0.1321  0.3576  0.8083
 1707TIP3    H131232   8.019   8.021   1.678 -1.3474 -1.4006  0.2168
 1707TIP3    H231233   7.945   8.118   1.767  1.6702  0.6917  0.6206
 1708TIP3   OH231234   7.320   0.660   0.954 -0.2302  0.1411  0.0357
 1708TIP3    H131235   7.337   0.569   0.930 -0.1147  0.0755  0.3649
 1708TIP3    H231236   7.226   0.671   0.942 -0.0913  0.2768 -1.0112
 1709TIP3   OH231237   1.773   2.167   7.700  0.2336  0.3733  0.2209
 1709TIP3    H131238   1.735   2.173   7.612 -1.3149  0.3190  0.8609
 1709TIP3    H231239   1.755   2.077   7.728  2.3128 -0.1899 -0.0667
 1710TIP3   OH231240   7.006   5.727   7.079  0.0714  0.6294 -0.6435
 1710TIP3    H131241   7.064   5.766   7.014 -0.3559 -0.0066 -1.4277
 1710TIP3    H231242   6.918   5.749   7.050 -0.1577 -0.4254 -0.7958
 1711TIP3   OH231243   5.154   2.028   0.172  0.1628  0.7607 -1.0293
 1711TIP3    H131244   5.065   1.996   0.155  0.1636  0.1954 -0.0144
 1711TIP3    H231245   5.208   1.985   0.106  0.3403 -2.2520  0.8682
 1712TIP3   OH231246   2.910   6.851   7.039  0.5238 -0.2192 -0.1255
 1712TIP3    H131247   2.985   6.885   6.990 -0.2685  3.1500  0.7035
 1712TIP3    H231248   2.841   6.917   7.026 -1.1351 -1.4195  1.9325
 1713TIP3   OH231249   4.576   1.015   6.001 -0.2265 -0.5335 -0.1633
 1713TIP3    H131250   4.609   0.929   5.975  1.5483 -0.4791  1.6255
 1713TIP3    H231251   4.495   1.026   5.951  0.2639 -2.5888 -1.5370
 1714TIP3   OH231252   0.974   6.055   1.209 -0.0808 -0.0552 -0.4199
 1714TIP3    H131253   0.964   6.139   1.254  3.0760 -0.3945  1.1309
 1714TIP3    H231254   0.935   5.991   1.269  0.5313 -0.0586 -0.0220
 1715TIP3   OH231255   7.049   3.173   1.613  0.6899  0.2800 -0.9044
 1715TIP3    H131256   7.038   3.100   1.674  1.2253  1.0087  0.0940
 1715TIP3    H231257   7.115   3.142   1.550  0.4598 -0.3142 -0.8631
 1716TIP3   OH231258   1.229   1.324   1.013  0.0968  0.2132  0.4539
 1716TIP3    H131259   1.255   1.259   1.078 -1.4233 -0.0353  0.8434
 1716TIP3    H231260   1.311   1.347   0.969  1.1254  0.1931  2.2633
 1717TIP3   OH231261   4.402   0.429   1.703 -0.4856  0.4683  0.0205
 1717TIP3    H131262   4.494   0.402   1.698 -0.4775  0.4152  0.4713
 1717TIP3    H231263   4.366   0.381   1.777 -0.8543  0.5660 -0.0904
 1718TIP3   OH231264   6.648   0.083   6.714  0.3241 -0.1511  0.3208
 1718TIP3    H131265   6.561   0.050   6.694 -0.4751  2.2264 -0.4791
 1718TIP3    H231266   6.687   0.015   6.769 -2.3534 -0.8844  1.4846
 1719TIP3   OH231267   5.236   0.334   6.869  0.5813 -0.7030  0.4081
 1719TIP3    H131268   5.161   0.274   6.867  0.0834 -0.2415  2.9581
 1719TIP3    H231269   5.310   0.279   6.893 -0.0342 -0.2631  3.6579
 1720TIP3   OH231270   7.667   5.738   0.380 -0.4629 -0.1629 -0.0663
 1720TIP3    H131271   7.725   5.704   0.312 -1.4348  1.3363 -1.7163
 1720TIP3    H231272   7.720   5.802   0.427 -0.0835 -0.5023 -0.0186
 1721TIP3   OH231273   5.339   7.340   0.274 -0.1210 -0.2561  0.3079
 1721TIP3    H131274   5.369   7.431   0.278  0.8834 -0.5561  0.0200
 1721TIP3    H231275   5.305   7.322   0.361  0.5394  0.1146  0.6492
 1722TIP3   OH231276   6.532   2.447   5.439 -0.0476  0.6062 -0.6594
 1722TIP3    H131277   6.503   2.368   5.392 -0.2342  0.8172 -0.9003
 1722TIP3    H231278   6.622   2.428   5.464  0.2925  0.7790 -1.7363
 1723TIP3   OH231279   7.435   0.822   6.400 -0.2758  0.1836 -0.5177
 1723TIP3    H131280   7.397   0.735   6.414 -0.7161  0.1956 -1.5565
 1723TIP3    H231281   7.363   0.883   6.420 -0.4304  0.2528 -1.2749
 1724TIP3   OH231282   5.174   0.525   6.081  0.0448  0.0218 -0.3856
 1724TIP3    H131283   5.087   0.557   6.105  0.1039 -0.6381  0.7781
 1724TIP3    H231284   5.216   0.505   6.165  0.5736 -1.6192 -1.0069
 1725TIP3   OH231285   0.576   5.097   7.806  0.2866 -0.3429  0.1000
 1725TIP3    H131286   0.651   5.062   7.855  0.0027 -2.2855 -0.7704
 1725TIP3    H231287   0.603   5.092   7.714  0.4421  2.3501 -0.0673
 1726TIP3   OH231288   3.683   6.037   1.641 -0.5497 -0.2676 -0.4489
 1726TIP3    H131289   3.774   6.011   1.626  0.3228  2.5465 -0.6556
 1726TIP3    H231290   3.680   6.062   1.733 -0.5619  1.4661 -0.8946
 1727TIP3   OH231291   3.492   4.329   0.613  0.2863  0.1634 -0.1882
 1727TIP3    H131292   3.556   4.297   0.676 -0.9541  1.3101  1.7544
 1727TIP3    H231293   3.513   4.422   0.602 -2.3222  1.1850  2.3088
 1728TIP3   OH231294   3.280   1.576   6.732 -0.2751 -0.1828  0.4608
 1728TIP3    H131295   3.312   1.572   6.823 -1.7653 -0.5972  1.0000
 1728TIP3    H231296   3.326   1.506   6.687  0.4175 -0.0294  0.9069
 1729TIP3   OH231297   2.428   7.895   1.909 -0.3518  0.1427 -0.0265
 1729TIP3    H131298   2.471   7.968   1.954 -1.7078  0.4869  0.7801
 1729TIP3    H231299   2.368   7.937   1.847 -2.8480 -0.1296  2.0330
 1730TIP3   OH231300   5.304   6.124   1.676  0.2180  0.5835  0.9217
 1730TIP3    H131301   5.346   6.183   1.614 -2.3004 -0.3050 -1.8441
 1730TIP3    H231302   5.239   6.178   1.720 -0.4874  0.4231  0.0923
 1731TIP3   OH231303   2.031   1.285   6.183  0.4003 -0.0751  0.1453
 1731TIP3    H131304   2.120   1.295   6.216 -0.0867 -0.8615  1.7881
 1731TIP3    H231305   2.033   1.327   6.097  1.9085  1.4534  0.8611
 1732TIP3   OH231306   1.669   5.707   1.396 -0.4960 -0.3342 -0.8101
 1732TIP3    H131307   1.638   5.672   1.479 -1.2607 -4.2204 -2.5107
 1732TIP3    H231308   1.590   5.725   1.346 -0.0984 -1.1463 -1.7836
 1733TIP3   OH231309   7.456   8.054   1.414 -0.5393  0.4918  0.2395
 1733TIP3    H131310   7.515   8.046   1.488 -0.0066  1.0120 -0.1177
 1733TIP3    H231311   7.438   7.964   1.387  0.4814  0.3326  0.0566
 1734TIP3   OH231312   1.674   1.014   1.404 -0.4582  0.4455 -0.0503
 1734TIP3    H131313   1.592   1.059   1.382 -1.0795 -1.2449 -1.4129
 1734TIP3    H231314   1.654   0.921   1.391  1.2770 -0.1018  1.0017
 1735TIP3   OH231315   2.873   0.414   0.732 -0.1581 -0.3007  0.2146
 1735TIP3    H131316   2.885   0.500   0.693  1.4746 -1.0147 -1.0065
 1735TIP3    H231317   2.954   0.399   0.782 -0.5931 -0.9640  0.7384
 1736TIP3   OH231318   2.308   2.855   7.720 -0.2921  0.8351  0.4207
 1736TIP3    H131319   2.378   2.803   7.759 -0.4527  0.8051  0.6717
 1736TIP3    H231320   2.337   2.871   7.630 -1.6024 -2.3213 -0.7030
 1737TIP3   OH231321   0.808   7.783   0.433 -0.1051 -1.1559  0.4838
 1737TIP3    H131322   0.791   7.849   0.501  0.4881 -1.5686  1.0469
 1737TIP3    H231323   0.721   7.755   0.404 -0.3592 -0.2496  0.3595
 1738TIP3   OH231324   5.552   4.504   7.793 -0.5275 -0.0501 -0.0545
 1738TIP3    H131325   5.483   4.525   7.855 -0.4596 -1.7406  0.6467
 1738TIP3    H231326   5.608   4.441   7.840 -0.0872 -0.8435 -1.5768
 1739TIP3   OH231327   5.004   7.283   7.545 -0.1225 -0.2567  0.3290
 1739TIP3    H131328   4.964   7.202   7.578  1.4089 -0.7951  1.0053
 1739TIP3    H231329   4.995   7.345   7.618 -0.5600 -0.0781  0.1239
 1740TIP3   OH231330   7.915   5.609   1.013  0.0769  0.3061  0.1868
 1740TIP3    H131331   7.976   5.566   0.953 -0.2067  1.1173 -0.7109
 1740TIP3    H231332   7.967   5.626   1.091  1.0284  1.0067 -0.5776
 1741TIP3   OH231333   6.968   5.114   7.108  0.3906  0.1234 -0.1453
 1741TIP3    H131334   6.903   5.176   7.142  0.6246 -0.0226  0.5894
 1741TIP3    H231335   6.934   5.028   7.133 -0.6508 -0.1808 -2.3841
 1742TIP3   OH231336   2.415   5.918   6.202 -0.5793  0.3531  0.1072
 1742TIP3    H131337   2.371   5.869   6.132  1.5109  0.6911 -1.5420
 1742TIP3    H231338   2.471   5.981   6.156 -0.0798  1.4863  2.1306
 1743TIP3   OH231339   7.289   1.118   0.083 -0.2711 -0.5894  0.4888
 1743TIP3    H131340   7.230   1.193   0.083 -2.0005 -1.8943  0.5931
 1743TIP3    H231341   7.332   1.122   0.169 -0.8384 -0.0974  0.7570
 1744TIP3   OH231342   3.396   0.791   2.124  0.0586 -0.8937 -0.6908
 1744TIP3    H131343   3.406   0.880   2.156 -0.7254 -0.8612 -0.5022
 1744TIP3    H231344   3.320   0.757   2.171 -1.0879 -0.8672 -2.4215
 1745TIP3   OH231345   0.586   7.013   5.766  0.1420 -0.4047  0.5554
 1745TIP3    H131346   0.615   6.971   5.684  0.8800  0.1964  0.4985
 1745TIP3    H231347   0.513   7.069   5.740  1.4487  1.1125 -0.0359
 1746TIP3   OH231348   5.777   1.552   1.587 -0.1848 -0.4481  0.2310
 1746TIP3    H131349   5.682   1.541   1.578 -0.3411  0.5580  0.5334
 1746TIP3    H231350   5.801   1.494   1.660 -0.5805 -0.6520  0.2003
 1747TIP3   OH231351   1.324   3.121   7.393  0.2570 -0.0494  0.1127
 1747TIP3    H131352   1.306   3.200   7.443 -0.5022  0.7345 -1.3179
 1747TIP3    H231353   1.265   3.126   7.317  2.4198 -0.3334 -1.7100
 1748TIP3   OH231354   1.336   4.831   7.278 -0.4513 -0.1527  0.0390
 1748TIP3    H131355   1.342   4.769   7.351  0.6102  2.4431  2.3367
 1748TIP3    H231356   1.263   4.888   7.301  0.2364  1.0459 -0.6566
 1749TIP3   OH231357   4.943   0.659   6.140 -0.6298  0.0295 -0.1121
 1749TIP3    H131358   4.978   0.743   6.110  0.6644 -0.3007  0.4124
 1749TIP3    H231359   4.849   0.674   6.148 -0.4506  1.3604 -0.2463
 1750TIP3   OH231360   5.351   2.106   0.771 -0.0846  0.4316  0.3045
 1750TIP3    H131361   5.371   2.191   0.731 -0.0845 -0.7508 -2.4830
 1750TIP3    H231362   5.262   2.086   0.741  1.0378 -1.8957 -1.8522
 1751TIP3   OH231363   5.823   1.447   1.927  0.0748  0.5928  0.2769
 1751TIP3    H131364   5.770   1.371   1.951  0.1176 -0.1224 -1.7173
 1751TIP3    H231365   5.767   1.522   1.946 -1.4413 -0.1223 -1.1309
 1752TIP3   OH231366   0.355   5.676   6.579  0.2062  0.0151 -0.3014
 1752TIP3    H131367   0.427   5.646   6.635 -0.2192 -0.8802 -0.2075
 1752TIP3    H231368   0.385   5.661   6.490  0.8052  1.2523 -0.3227
 1753TIP3   OH231369   2.380   7.113   7.558  0.1597 -0.0400  0.4499
 1753TIP3    H131370   2.446   7.045   7.567  1.7774  1.4031  0.1187
 1753TIP3    H231371   2.349   7.106   7.468  1.2001  0.3809  0.0417
 1754TIP3   OH231372   2.797   3.164   6.431 -0.2481  0.0630  0.3498
 1754TIP3    H131373   2.808   3.218   6.353  1.2291  0.6080  0.8938
 1754TIP3    H231374   2.817   3.075   6.402  1.9862  0.4885  0.4224
 1755TIP3   OH231375   5.428   4.276   0.842 -0.1712  0.1993  0.1095
 1755TIP3    H131376   5.496   4.321   0.792 -1.7293  0.3318 -2.0020
 1755TIP3    H231377   5.458   4.185   0.847  0.2584  0.2958 -0.6308
 1756TIP3   OH231378   0.103   7.719   1.427 -0.7914 -0.0998  0.0909
 1756TIP3    H131379   0.146   7.784   1.372  0.2736 -0.7017  0.1921
 1756TIP3    H231380   0.174   7.680   1.478 -1.0283 -2.8693 -1.5337
 1757TIP3   OH231381   5.139   2.139   7.150 -0.0235  0.4971  0.1566
 1757TIP3    H131382   5.176   2.217   7.191  0.7852 -0.0482  0.4694
 1757TIP3    H231383   5.176   2.139   7.061 -2.9271  2.5084 -1.2157
 1758TIP3   OH231384   6.039   1.224   0.029  0.0692 -0.4034  0.0542
 1758TIP3    H131385   6.119   1.257   0.071 -0.4315  0.6879  0.2053
 1758TIP3    H231386   5.968   1.268   0.076 -0.5230  0.7644 -1.8246
 1759TIP3   OH231387   5.003   6.007   1.172 -0.4524  0.1125  0.1804
 1759TIP3    H131388   5.028   5.917   1.191 -0.1886 -0.0792 -1.0165
 1759TIP3    H231389   5.023   6.055   1.253  2.3155 -0.3450 -0.1413
 1760TIP3   OH231390   0.852   7.144   7.244 -0.1504  0.2306 -0.1417
 1760TIP3    H131391   0.844   7.069   7.185 -1.2574 -2.4146  3.0906
 1760TIP3    H231392   0.764   7.182   7.247 -0.3864 -0.3398  0.5695
 1761TIP3   OH231393   5.181   5.909   0.425 -0.9045  0.1817 -0.1670
 1761TIP3    H131394   5.192   5.868   0.510 -0.4561 -0.2261 -0.4184
 1761TIP3    H231395   5.257   5.967   0.416  0.0121 -1.0897 -1.0224
 1762TIP3   OH231396   4.537   7.763   7.158 -0.2510  0.1720  0.1265
 1762TIP3    H131397   4.491   7.828   7.211 -0.2471 -0.0141  0.3571
 1762TIP3    H231398   4.531   7.797   7.069 -1.2682 -0.0874  0.0765
 1763TIP3   OH231399   5.008   0.689   6.802 -0.1377  0.8408 -0.0870
 1763TIP3    H131400   5.038   0.774   6.770 -0.9637  1.8691  1.6976
 1763TIP3    H231401   5.067   0.669   6.875 -0.2245  0.0792 -0.2107
 1764TIP3   OH231402   3.422   3.827   6.374  0.1674 -0.2009  0.6607
 1764TIP3    H131403   3.483   3.893   6.408 -0.5984  0.9779 -0.1677
 1764TIP3    H231404   3.475   3.749   6.361  2.1527  1.4547 -2.3990
 1765TIP3   OH231405   5.031   4.673   7.834  0.0693  0.3640  1.1214
 1765TIP3    H131406   4.935   4.677   7.830  0.0507 -0.5887  0.1198
 1765TIP3    H231407   5.059   4.763   7.817 -0.6504  0.6597  1.4780
 1766TIP3   OH231408   4.613   1.945   0.165  0.8286 -0.4406  0.0082
 1766TIP3    H131409   4.566   1.880   0.113  1.6682 -0.7030 -0.4444
 1766TIP3    H231410   4.564   2.026   0.153 -0.1355 -0.9453  0.4419
 1767TIP3   OH231411   0.198   1.822   1.834  0.1054  0.0893 -0.1542
 1767TIP3    H131412   0.107   1.849   1.845 -0.1194 -0.2575 -1.0724
 1767TIP3    H231413   0.247   1.880   1.891 -0.8169 -0.6083  1.4517
 1768TIP3   OH231414   4.370   2.292   7.699 -0.2184 -0.1268  0.1478
 1768TIP3    H131415   4.398   2.226   7.636  0.0530  0.1621 -0.0331
 1768TIP3    H231416   4.451   2.324   7.738 -0.3922 -0.4491  0.7929
 1769TIP3   OH231417   5.823   4.940   2.537  0.0933  0.0493 -0.2309
 1769TIP3    H131418   5.869   4.866   2.497 -2.6037 -1.5647 -0.5805
 1769TIP3    H231419   5.834   4.927   2.631 -0.2552 -0.7729 -0.2921
 1770TIP3   OH231420   8.089   5.123   0.887 -0.0477  0.5690  0.1210
 1770TIP3    H131421   8.120   5.170   0.809 -2.2148 -1.2690 -1.9959
 1770TIP3    H231422   8.112   5.181   0.960  2.9065  1.9944 -1.7161
 1771TIP3   OH231423   0.023   3.306   6.171 -0.9755 -0.0673 -0.1394
 1771TIP3    H131424   0.047   3.222   6.133  1.3700  0.9412 -1.1099
 1771TIP3    H231425  -0.035   3.346   6.105  0.1549  0.1713 -1.0361
 1772TIP3   OH231426   6.995   6.587   1.393 -0.2771  0.3235 -0.2823
 1772TIP3    H131427   6.981   6.674   1.354 -0.1861  0.0566 -0.9266
 1772TIP3    H231428   6.936   6.530   1.344 -0.5350  0.0661  0.3209
 1773TIP3   OH231429   2.642   2.439   0.711 -0.4167  0.0559 -0.5379
 1773TIP3    H131430   2.714   2.393   0.754 -0.8295 -0.6125 -0.5545
 1773TIP3    H231431   2.564   2.417   0.762 -0.3569  2.3550  0.6792
 1774TIP3   OH231432   4.173   0.659   6.988 -0.4208  0.6464  0.4377
 1774TIP3    H131433   4.167   0.691   7.078  0.1047  0.4238  0.5565
 1774TIP3    H231434   4.245   0.708   6.950 -0.6896  0.7900  0.1150
 1775TIP3   OH231435   4.000   0.151   0.982  0.7735 -0.0080  0.2574
 1775TIP3    H131436   4.008   0.194   1.067 -0.2751 -1.2191  1.0228
 1775TIP3    H231437   4.089   0.125   0.959  1.1389  0.8065  0.7235
 1776TIP3   OH231438   2.958   5.739   0.238  0.5159  0.0043  0.2806
 1776TIP3    H131439   2.990   5.679   0.306 -0.4525 -0.3475  0.4507
 1776TIP3    H231440   2.962   5.687   0.158  0.2270 -0.1004  0.3313
 1777TIP3   OH231441   5.905   6.383   1.998 -0.0598 -0.0550  0.8742
 1777TIP3    H131442   5.892   6.347   2.086 -2.0482  0.1030  0.6965
 1777TIP3    H231443   5.878   6.474   2.006 -1.3155 -0.3185 -0.1278
 1778TIP3   OH231444   2.888   5.780   0.993  0.4667 -0.3777  1.1790
 1778TIP3    H131445   2.813   5.834   1.018  0.4801 -0.0437  0.5196
 1778TIP3    H231446   2.876   5.698   1.041 -1.8050 -1.4082 -0.9709
 1779TIP3   OH231447   4.482   2.372   0.165  0.0779 -0.0568  0.1186
 1779TIP3    H131448   4.474   2.323   0.247 -1.0432 -0.1213 -0.0136
 1779TIP3    H231449   4.421   2.329   0.105 -0.2716  0.9522 -0.2700
 1780TIP3   OH231450   3.181   4.645   7.080 -0.3151  1.1325 -0.1266
 1780TIP3    H131451   3.205   4.568   7.131  1.4854  2.0420  0.4788
 1780TIP3    H231452   3.090   4.662   7.104 -0.5981 -0.5152  0.0623
 1781TIP3   OH231453   0.705   0.922   7.711  0.1735 -0.1426  0.0893
 1781TIP3    H131454   0.634   0.872   7.752 -0.7824  1.0984 -0.0082
 1781TIP3    H231455   0.725   0.873   7.632 -0.9353 -0.2416 -0.1475
 1782TIP3   OH231456   0.555   7.879   5.388  0.0812  0.2523 -0.2299
 1782TIP3    H131457   0.644   7.894   5.355  0.9573 -1.4473  1.1717
 1782TIP3    H231458   0.506   7.850   5.311  1.6821 -2.1544 -0.4831
 1783TIP3   OH231459   5.675   4.279   7.258 -0.0870  1.0719 -0.1680
 1783TIP3    H131460   5.678   4.287   7.353  1.2513 -0.8076  0.0079
 1783TIP3    H231461   5.639   4.192   7.242  1.0020  0.8080 -1.3262
 1784TIP3   OH231462   3.992   3.703   6.716 -0.5216 -0.5037  0.5569
 1784TIP3    H131463   4.038   3.669   6.640  0.1714  1.9169 -0.1727
 1784TIP3    H231464   4.061   3.735   6.774 -1.1170  2.5668 -0.2631
 1785TIP3   OH231465   5.022   6.805   1.328 -0.2182 -0.0271  0.1290
 1785TIP3    H131466   5.019   6.712   1.305  0.6573 -0.1702  0.5757
 1785TIP3    H231467   4.953   6.815   1.393  0.0041 -0.4708  0.4404
 1786TIP3   OH231468   2.170   1.852   6.909  0.2671 -0.4965 -0.2951
 1786TIP3    H131469   2.233   1.782   6.925  0.9018  0.3509  1.0699
 1786TIP3    H231470   2.107   1.845   6.982 -0.2646 -0.2839 -0.7257
 1787TIP3   OH231471   6.824   6.360   1.315  0.3346  0.2637 -0.0402
 1787TIP3    H131472   6.883   6.287   1.298 -0.1759  0.3137 -2.4583
 1787TIP3    H231473   6.743   6.320   1.346  0.6933 -0.0384  0.5009
 1788TIP3   OH231474   4.808   8.009   1.111  0.3429  0.2290  0.4933
 1788TIP3    H131475   4.793   7.936   1.052  0.7996  1.0386 -0.6691
 1788TIP3    H231476   4.903   8.008   1.125  0.2533  0.1290  1.1056
 1789TIP3   OH231477   0.169   4.430   0.699  0.2261 -0.2682  0.2959
 1789TIP3    H131478   0.237   4.451   0.762  0.3641  0.6391 -0.1351
 1789TIP3    H231479   0.167   4.505   0.640 -2.2834  0.5235  1.2648
 1790TIP3   OH231480   5.404   7.839   0.110  0.0774  0.1648  0.1510
 1790TIP3    H131481   5.421   7.875   0.023 -0.5244 -1.3610 -0.6489
 1790TIP3    H231482   5.346   7.764   0.094 -2.1784  1.3462  2.1147
 1791TIP3   OH231483   1.093   1.398   0.182 -0.1518  0.2359  0.1615
 1791TIP3    H131484   1.040   1.403   0.262 -0.7024  0.3747 -0.2092
 1791TIP3    H231485   1.029   1.386   0.112  0.3208  0.2678 -0.2764
 1792TIP3   OH231486   3.392   7.368   7.945  0.0328  0.0221  0.1676
 1792TIP3    H131487   3.400   7.330   8.032  0.5940 -0.6554 -0.1677
 1792TIP3    H231488   3.306   7.341   7.914 -0.1030  0.1318  0.4469
 1793TIP3   OH231489   1.243   7.729   5.082 -0.1081  0.4019  0.0068
 1793TIP3    H131490   1.168   7.739   5.139  0.2324  0.7644  0.3970
 1793TIP3    H231491   1.242   7.637   5.056 -0.3874  0.2874  0.4264
 1794TIP3   OH231492   4.791   5.774   5.294  0.6582  0.3750  0.2499
 1794TIP3    H131493   4.730   5.831   5.247  0.9039  0.1216 -0.3830
 1794TIP3    H231494   4.743   5.692   5.306  0.9286  0.1201 -0.3917
 1795TIP3   OH231495   4.334   2.469   1.125 -0.5734 -0.1809 -0.3345
 1795TIP3    H131496   4.334   2.375   1.112 -1.7531 -0.5526  1.9936
 1795TIP3    H231497   4.323   2.505   1.036 -0.2839 -2.1871 -1.2346
 1796TIP3   OH231498   5.899   7.780   1.510 -0.0101 -0.1771 -0.5634
 1796TIP3    H131499   5.930   7.748   1.594  0.1566  0.9219 -0.1874
 1796TIP3    H231500   5.946   7.728   1.445 -0.1964 -1.0826  0.0209
 1797TIP3   OH231501   0.386   4.497   0.920  0.4926 -0.3900  0.0248
 1797TIP3    H131502   0.440   4.469   0.993  1.1354 -1.4161 -0.8033
 1797TIP3    H231503   0.407   4.590   0.908 -1.4333  0.4880  2.6250
 1798TIP3   OH231504   6.460   1.000   7.216 -0.4140 -0.2864 -0.2349
 1798TIP3    H131505   6.369   1.028   7.213 -1.1164 -2.2859  0.8209
 1798TIP3    H231506   6.486   0.992   7.124 -1.8190 -1.2200 -0.5740
 1799TIP3   OH231507   7.899   1.183   7.596  0.4001  0.8112  0.0554
 1799TIP3    H131508   7.894   1.217   7.686  0.9806  1.0852 -0.0104
 1799TIP3    H231509   7.992   1.175   7.579  0.2969  1.1353 -0.6686
 1800TIP3   OH231510   5.677   3.834   3.132  0.7234 -0.6326 -0.2991
 1800TIP3    H131511   5.649   3.877   3.051 -3.3842 -0.3296  1.0168
 1800TIP3    H231512   5.623   3.755   3.136  2.2272 -1.6377  1.2702
 1801TIP3   OH231513   4.993   4.148   7.027 -0.4181  0.5050  0.0680
 1801TIP3    H131514   4.999   4.209   6.954  1.1937  0.0141 -0.2564
 1801TIP3    H231515   5.026   4.065   6.992 -0.5266  0.0045  1.0968
 1802TIP3   OH231516   4.457   5.785   6.862 -0.5547  0.5248  0.4148
 1802TIP3    H131517   4.427   5.876   6.866 -1.2887  0.3051  0.1381
 1802TIP3    H231518   4.545   5.787   6.899 -0.7201  1.2797  0.7935
 1803TIP3   OH231519   7.535   0.478   6.699  0.0004  0.0597  0.1017
 1803TIP3    H131520   7.602   0.416   6.669 -1.2898 -0.9049 -0.9130
 1803TIP3    H231521   7.537   0.549   6.635  0.8916  0.6654  0.7819
 1804TIP3   OH231522   6.276   3.397   1.597  0.5283  0.5486 -0.1357
 1804TIP3    H131523   6.298   3.330   1.662 -0.4405  0.1235 -0.2305
 1804TIP3    H231524   6.183   3.384   1.579  0.1531  2.3252  0.3143
 1805TIP3   OH231525   0.147   0.191   0.178 -0.3018 -0.3035 -0.3546
 1805TIP3    H131526   0.167   0.114   0.125  1.4444 -0.3383  0.2993
 1805TIP3    H231527   0.082   0.161   0.242  0.8762 -1.4488  0.3444
 1806TIP3   OH231528   5.734   6.396   7.696  0.2325 -0.4445 -0.5438
 1806TIP3    H131529   5.762   6.487   7.684 -0.1134 -0.4209 -1.2748
 1806TIP3    H231530   5.771   6.369   7.780  1.6197 -0.1146 -1.0320
 1807TIP3   OH231531   6.775   3.603   6.477  0.1675  0.1785 -0.2464
 1807TIP3    H131532   6.818   3.663   6.416 -1.4079  1.1624 -0.4655
 1807TIP3    H231533   6.831   3.603   6.555  0.9172  0.8535 -0.7659
 1808TIP3   OH231534   7.616   5.726   2.164  0.0837 -0.1924 -0.4194
 1808TIP3    H131535   7.631   5.651   2.220 -0.3006  0.6013  0.8008
 1808TIP3    H231536   7.675   5.714   2.089  0.8953 -1.0852  0.3480
 1809TIP3   OH231537   0.531   5.907   1.030 -0.2691  0.4417  0.3088
 1809TIP3    H131538   0.576   5.847   0.971  0.4680  0.5590  0.7347
 1809TIP3    H231539   0.565   5.993   1.007 -2.2025  0.8826 -1.1078
 1810TIP3   OH231540   0.344   0.332   0.594 -0.9950 -0.2385  0.6545
 1810TIP3    H131541   0.375   0.331   0.685  0.6751  0.0221  0.1217
 1810TIP3    H231542   0.325   0.424   0.576  3.0329  0.5551 -0.5656
 1811TIP3   OH231543   2.121   5.871   1.384  0.0868 -0.4036  0.0620
 1811TIP3    H131544   2.097   5.963   1.398  2.6570  0.5544 -1.2915
 1811TIP3    H231545   2.043   5.832   1.342 -0.3267  1.6931 -1.2514
 1812TIP3   OH231546   1.716   5.385   1.025  0.2572  0.0692 -0.9591
 1812TIP3    H131547   1.640   5.432   1.060 -1.4639 -1.9247 -1.7867
 1812TIP3    H231548   1.733   5.317   1.091  0.5668 -0.2175 -1.3335
 1813TIP3   OH231549   7.160   0.120   6.854 -0.1023 -0.2260 -0.0248
 1813TIP3    H131550   7.229   0.129   6.921 -0.1353 -1.6121  0.2111
 1813TIP3    H231551   7.110   0.202   6.861  0.1994 -0.1258  1.3050
 1814TIP3   OH231552   0.913   1.729   6.089  0.2096 -0.1970 -0.3802
 1814TIP3    H131553   0.825   1.765   6.073  0.3708 -0.0263 -0.8994
 1814TIP3    H231554   0.911   1.702   6.181 -0.4780 -0.4452 -0.4633
 1815TIP3   OH231555   1.006   7.272   2.423  0.2768 -0.2358  0.5091
 1815TIP3    H131556   1.053   7.234   2.348 -1.1882  2.3525 -1.8890
 1815TIP3    H231557   0.952   7.200   2.455  0.5289 -1.3075 -1.2966
 1816TIP3   OH231558   1.366   5.488   7.281  0.2364  0.1430 -0.1486
 1816TIP3    H131559   1.411   5.481   7.197  0.0067 -1.5984 -0.1629
 1816TIP3    H231560   1.308   5.412   7.284 -1.1513  1.1709  0.7931
 1817TIP3   OH231561   2.828   4.804   6.720  0.2349  0.1328 -0.2587
 1817TIP3    H131562   2.922   4.815   6.735  0.4595 -0.4185 -1.1775
 1817TIP3    H231563   2.807   4.867   6.651 -0.6087  2.0541  1.6311
 1818TIP3   OH231564   7.014   2.537   0.393 -0.0587 -0.5986  0.5280
 1818TIP3    H131565   6.975   2.513   0.477  0.4418  2.7092  1.8426
 1818TIP3    H231566   7.106   2.513   0.402  0.5365  1.8700  2.0035
 1819TIP3   OH231567   4.492   0.511   0.584 -0.1747 -0.1019  0.1616
 1819TIP3    H131568   4.574   0.547   0.618  0.5703 -2.3040  0.8966
 1819TIP3    H231569   4.506   0.416   0.585 -3.0159 -0.6013  1.0468
 1820TIP3   OH231570   2.478   4.243   0.795 -0.2388 -0.6298  0.5948
 1820TIP3    H131571   2.442   4.270   0.711 -3.8075 -0.3827  2.0403
 1820TIP3    H231572   2.509   4.154   0.780  0.7797 -0.0050 -1.3405
 1821TIP3   OH231573   4.965   5.503   0.845  0.3939  0.1918  0.3050
 1821TIP3    H131574   5.004   5.497   0.758  0.0488  0.8495  0.0960
 1821TIP3    H231575   5.033   5.547   0.897  0.6355 -0.2814  0.3960
 1822TIP3   OH231576   3.484   3.750   6.842  0.8170  0.0954  0.1647
 1822TIP3    H131577   3.563   3.767   6.790  0.0428  0.0590 -1.0596
 1822TIP3    H231578   3.484   3.655   6.854  0.1731 -0.0835 -1.1480
 1823TIP3   OH231579   1.475   1.781   7.154  0.3318 -0.2916  0.4638
 1823TIP3    H131580   1.558   1.827   7.141 -0.4910  0.6044 -2.3659
 1823TIP3    H231581   1.410   1.839   7.115 -1.5847 -1.2437  2.0902
 1824TIP3   OH231582   6.284   1.633   6.322  0.7273 -0.0991 -0.2259
 1824TIP3    H131583   6.321   1.704   6.375  1.5703 -0.9732  0.3769
 1824TIP3    H231584   6.189   1.642   6.332  0.7917  1.3061 -0.6478
 1825TIP3   OH231585   7.092   3.046   1.878  0.2818  0.0935  0.1998
 1825TIP3    H131586   7.180   3.064   1.845 -0.4010  1.3727 -1.0307
 1825TIP3    H231587   7.080   3.108   1.950  0.1655  0.3391 -0.0308
 1826TIP3   OH231588   3.611   0.793   1.298 -0.2427 -0.0785 -0.0365
 1826TIP3    H131589   3.682   0.828   1.352 -0.5761 -1.1335  1.1343
 1826TIP3    H231590   3.548   0.758   1.361 -0.3999 -1.8375 -1.1104
 1827TIP3   OH231591   1.839   6.000   6.220  0.3724 -0.8460  0.5405
 1827TIP3    H131592   1.910   5.956   6.174  1.0798  1.6768 -0.9776
 1827TIP3    H231593   1.781   6.031   6.151 -1.4326 -1.5304  1.6926
 1828TIP3   OH231594   7.497   6.868   0.636 -0.0741 -0.1544 -0.4312
 1828TIP3    H131595   7.570   6.915   0.597 -0.2197 -1.1106 -1.9316
 1828TIP3    H231596   7.483   6.793   0.578 -0.0353 -1.8951  1.7041
 1829TIP3   OH231597   4.471   5.682   6.380 -0.5328 -0.8573  0.1951
 1829TIP3    H131598   4.377   5.674   6.364 -0.7283  1.0397  0.1829
 1829TIP3    H231599   4.493   5.607   6.435 -2.2177 -0.9111  0.8472
 1830TIP3   OH231600   7.443   6.838   7.107 -0.0226  0.0076  0.0319
 1830TIP3    H131601   7.436   6.910   7.044  0.5211 -0.8111 -0.9807
 1830TIP3    H231602   7.501   6.774   7.066  0.3765 -0.5420  1.3814
 1831TIP3   OH231603   1.035   0.433   7.467 -0.1499  0.1604 -0.0209
 1831TIP3    H131604   1.097   0.506   7.461  0.5002 -0.3325  0.5854
 1831TIP3    H231605   0.952   0.475   7.492 -0.1738  0.8679 -1.2028
 1832TIP3   OH231606   7.636   8.039   5.331  0.1178  0.1263  0.2513
 1832TIP3    H131607   7.621   8.008   5.421 -0.5265  0.8803  0.4175
 1832TIP3    H231608   7.549   8.064   5.300  0.0490 -1.6636 -1.1910
 1833TIP3   OH231609   5.184   7.378   1.524  0.2241 -0.3009 -0.1257
 1833TIP3    H131610   5.195   7.291   1.563  0.6127 -1.1749 -2.0348
 1833TIP3    H231611   5.273   7.406   1.502 -0.0462 -0.2756 -1.2260
 1834TIP3   OH231612   5.088   2.194   5.787  0.7109  0.0930 -0.6268
 1834TIP3    H131613   5.118   2.281   5.814 -2.1284  0.8909  0.3142
 1834TIP3    H231614   4.998   2.208   5.759 -0.4175 -2.8203  1.1439
 1835TIP3   OH231615   6.231   5.902   0.163  0.2206  0.0600 -0.6322
 1835TIP3    H131616   6.324   5.915   0.181  0.5208 -1.6011 -0.8148
 1835TIP3    H231617   6.187   5.975   0.207  1.6090  0.9498 -0.6666
 1836TIP3   OH231618   1.121   7.209   0.864  0.0319 -0.2672 -0.4669
 1836TIP3    H131619   1.033   7.179   0.842 -0.0911  0.2179 -0.6309
 1836TIP3    H231620   1.178   7.140   0.830 -0.2591 -0.3977 -0.6947
 1837TIP3   OH231621   2.738   6.606   7.422 -0.1460  0.1986 -0.0475
 1837TIP3    H131622   2.759   6.512   7.428  0.0083  0.3077  1.7880
 1837TIP3    H231623   2.803   6.641   7.361  0.9319 -0.5980  0.5970
 1838TIP3   OH231624   5.498   2.636   2.470  0.1818  0.2290  0.1574
 1838TIP3    H131625   5.457   2.609   2.388 -1.0209  1.5640  0.2784
 1838TIP3    H231626   5.474   2.567   2.532  0.3216 -0.3191 -0.3885
 1839TIP3   OH231627   7.329   4.991   6.768  0.1285 -0.1489  0.1444
 1839TIP3    H131628   7.269   5.039   6.825 -0.3151 -0.7261  0.1787
 1839TIP3    H231629   7.281   4.912   6.744  1.1339 -0.9785  0.7648
 1840TIP3   OH231630   8.096   5.225   7.778  0.4704  1.0248  0.0909
 1840TIP3    H131631   8.165   5.160   7.794 -1.3289 -1.0949 -0.3066
 1840TIP3    H231632   8.017   5.186   7.816 -1.5616  1.0101 -3.6846
 1841TIP3   OH231633   2.955   5.837   1.457 -0.4894 -0.0854  0.0061
 1841TIP3    H131634   2.882   5.873   1.407  0.1763 -0.8958 -1.6283
 1841TIP3    H231635   2.930   5.849   1.549 -3.0317 -1.0352 -0.4814
 1842TIP3   OH231636   0.900   2.399   7.214  0.0092  0.3342  0.0987
 1842TIP3    H131637   0.882   2.470   7.276  0.9940  2.1091 -1.5013
 1842TIP3    H231638   0.835   2.412   7.144  0.0028 -0.5451 -0.0675
 1843TIP3   OH231639   3.900   1.220   7.504 -0.5753 -0.4064 -0.2382
 1843TIP3    H131640   3.850   1.208   7.423 -0.5894 -0.9468 -0.1579
 1843TIP3    H231641   3.849   1.284   7.555 -0.2121  0.4532 -0.9345
 1844TIP3   OH231642   7.082   2.200   6.216  0.4080  0.2660  0.5208
 1844TIP3    H131643   7.117   2.230   6.132  0.3304 -0.0494  0.3725
 1844TIP3    H231644   7.156   2.205   6.276  0.4113  0.6908  0.4856
 1845TIP3   OH231645   5.923   2.834   5.992 -0.1333 -0.4408  0.0300
 1845TIP3    H131646   5.915   2.874   5.905  1.3328  1.3411  0.6511
 1845TIP3    H231647   6.002   2.780   5.986 -1.6383 -2.6966 -0.5514
 1846TIP3   OH231648   4.959   1.913   7.382 -0.3189 -0.2614  0.2276
 1846TIP3    H131649   4.986   1.952   7.466 -0.8825 -0.8236  0.6857
 1846TIP3    H231650   4.936   1.823   7.405 -1.7358 -0.0460 -0.2915
 1847TIP3   OH231651   3.013   0.448   0.009 -0.0150  0.4087  0.3033
 1847TIP3    H131652   3.039   0.459   0.100  0.0462  2.9962  0.0373
 1847TIP3    H231653   3.082   0.393  -0.029  0.2117 -0.2830  1.6760
 1848TIP3   OH231654   6.161   2.280   1.304 -0.2147  0.5680 -0.0384
 1848TIP3    H131655   6.122   2.315   1.384  0.4743  0.6527  0.2656
 1848TIP3    H231656   6.090   2.281   1.240  0.3394  5.0176 -0.8619
 1849TIP3   OH231657   5.443   2.199   6.057  0.1994  0.2265 -0.0492
 1849TIP3    H131658   5.443   2.135   5.985  0.2978 -1.2637  1.2251
 1849TIP3    H231659   5.467   2.281   6.015  0.1735 -0.5766 -1.7445
 1850TIP3   OH231660   4.010   4.049   6.702 -0.4273 -0.4290 -0.1006
 1850TIP3    H131661   3.977   3.983   6.762 -1.0617  1.2118  1.4333
 1850TIP3    H231662   4.078   4.096   6.751 -0.6774  0.6853 -0.7628
 1851TIP3   OH231663   6.650   7.445   1.314 -0.6165 -0.2783 -0.6368
 1851TIP3    H131664   6.559   7.451   1.343 -0.0543  2.1143  0.9485
 1851TIP3    H231665   6.701   7.480   1.387  1.4013  0.4289 -2.2769
 1852TIP3   OH231666   4.379   2.842   1.356 -0.2131 -0.4707  0.4770
 1852TIP3    H131667   4.347   2.773   1.414 -1.4782  0.1037  0.5034
 1852TIP3    H231668   4.435   2.896   1.411 -0.2636 -0.7356  0.7905
 1853TIP3   OH231669   0.844   7.999   6.158  0.9316 -0.0678 -0.5020
 1853TIP3    H131670   0.780   8.060   6.194  1.5055 -0.6518  1.7038
 1853TIP3    H231671   0.793   7.923   6.131  0.3836  0.7432 -1.8391
 1854TIP3   OH231672   4.584   4.683   7.471  0.0312 -0.5115 -0.0842
 1854TIP3    H131673   4.665   4.635   7.491  1.2966  1.7567  0.5978
 1854TIP3    H231674   4.597   4.714   7.382 -0.1506 -0.2747 -0.0271
 1855TIP3   OH231675   2.204   2.831   0.665  0.3757  0.2332  0.5628
 1855TIP3    H131676   2.124   2.786   0.692  0.1628  0.0691 -0.2888
 1855TIP3    H231677   2.271   2.803   0.727 -0.3998  0.9898  1.7788
 1856TIP3   OH231678   7.842   6.360   1.305  0.2695 -0.0914 -0.1403
 1856TIP3    H131679   7.754   6.399   1.302 -0.5180 -1.8040 -0.6244
 1856TIP3    H231680   7.847   6.307   1.226  1.8449  0.1224 -0.2080
 1857TIP3   OH231681   2.603   4.897   6.491 -0.2022 -0.1299 -0.0670
 1857TIP3    H131682   2.553   4.954   6.549  0.8415  1.4593 -0.6678
 1857TIP3    H231683   2.691   4.935   6.491  0.3646 -1.3912 -0.9863
 1858TIP3   OH231684   6.574   1.974   0.494 -0.1345  0.3284  0.4278
 1858TIP3    H131685   6.527   1.953   0.413  1.0659  1.4951 -0.6151
 1858TIP3    H231686   6.582   1.890   0.539 -1.1086 -0.2882 -0.5117
 1859TIP3   OH231687   5.232   5.549   0.999 -0.3514  0.0142 -0.0256
 1859TIP3    H131688   5.298   5.504   0.948 -1.5023 -2.1354  0.2536
 1859TIP3    H231689   5.269   5.635   1.017  2.5952 -1.2739  0.6069
 1860TIP3   OH231690   5.701   1.963   7.347  0.5638 -0.1636 -0.1098
 1860TIP3    H131691   5.640   1.975   7.274 -0.1296  0.5986  0.5692
 1860TIP3    H231692   5.706   2.050   7.388  0.0642 -0.8208  1.4134
 1861TIP3   OH231693   3.575   6.006   0.741 -0.1153  0.2490  0.0543
 1861TIP3    H131694   3.647   6.015   0.803 -0.5397 -1.0168  0.7571
 1861TIP3    H231695   3.602   5.936   0.682 -0.7123 -0.1582  0.2546
 1862TIP3   OH231696   5.945   5.561   6.240  0.8152  0.3542  0.1926
 1862TIP3    H131697   5.858   5.550   6.277  0.9879  0.6814  0.7024
 1862TIP3    H231698   5.987   5.475   6.251  0.0140 -0.2975 -1.5304
 1863TIP3   OH231699   0.653   0.903   5.966  0.1440  0.0619  0.1027
 1863TIP3    H131700   0.558   0.900   5.973  0.1243  1.6413  1.1230
 1863TIP3    H231701   0.683   0.911   6.057  1.2047  0.2382 -0.2510
 1864TIP3   OH231702   1.029   4.725   0.433  0.5775  0.1794  0.0542
 1864TIP3    H131703   1.056   4.723   0.525 -0.0801 -1.3386  0.2474
 1864TIP3    H231704   1.109   4.706   0.384  1.1064  1.8054  0.2410
 1865TIP3   OH231705   3.791   3.778   7.248  0.2577 -0.1470 -0.6704
 1865TIP3    H131706   3.805   3.839   7.176 -2.6599 -0.7650 -1.8875
 1865TIP3    H231707   3.824   3.694   7.215  1.9834  0.2214  0.0472
 1866TIP3   OH231708   3.914   1.078   0.881  0.5428 -0.4809  0.0099
 1866TIP3    H131709   3.956   1.000   0.845 -0.2541 -1.1231  0.4498
 1866TIP3    H231710   3.889   1.054   0.970 -2.0433 -0.6338 -0.6937
 1867TIP3   OH231711   6.098   2.119   2.260  0.3737 -0.2399  0.1392
 1867TIP3    H131712   6.025   2.142   2.202 -0.7251 -0.1961  1.4692
 1867TIP3    H231713   6.166   2.086   2.202 -0.0710  1.2519 -1.3126
 1868TIP3   OH231714   0.802   2.885   1.373  0.0198 -0.1363 -0.0004
 1868TIP3    H131715   0.860   2.879   1.297  0.5879 -0.0898  0.4196
 1868TIP3    H231716   0.736   2.949   1.347  0.5833  0.3722 -0.2284
 1869TIP3   OH231717   4.943   3.260   0.525  0.1774 -0.0055 -0.0219
 1869TIP3    H131718   4.962   3.189   0.463 -1.6062 -0.6369  0.1203
 1869TIP3    H231719   4.912   3.332   0.470  2.5116  0.9431 -0.2274
 1870TIP3   OH231720   5.899   0.331   0.162  0.4025 -0.5610  0.1781
 1870TIP3    H131721   5.961   0.308   0.231  3.3003 -0.5170 -2.2153
 1870TIP3    H231722   5.865   0.247   0.131 -0.2338 -0.6234  0.9971
 1871TIP3   OH231723   3.640   7.471   0.198  0.1175  0.4186  0.4482
 1871TIP3    H131724   3.703   7.535   0.231  1.1427 -0.1967 -0.2604
 1871TIP3    H231725   3.568   7.523   0.164  0.3404  1.1435  1.0565
 1872TIP3   OH231726   5.900   4.450   6.080 -0.0989  0.1768 -0.0388
 1872TIP3    H131727   5.948   4.479   6.004  1.0862  2.5957  1.5116
 1872TIP3    H231728   5.901   4.354   6.075  1.5450  0.2541 -2.0270
 1873TIP3   OH231729   4.318   0.334   7.542 -0.3740 -0.8024  0.1038
 1873TIP3    H131730   4.307   0.336   7.637 -2.1715  0.3922 -0.0826
 1873TIP3    H231731   4.259   0.402   7.509  1.6297  0.1449 -1.7680
 1874TIP3   OH231732   4.629   0.117   6.829  0.2204 -0.1650 -0.2798
 1874TIP3    H131733   4.695   0.186   6.829  0.3655 -0.2980 -0.0039
 1874TIP3    H231734   4.610   0.102   6.922 -0.4454  0.1017 -0.3669
 1875TIP3   OH231735   6.941   0.425   1.678  0.4256 -0.4120 -0.4948
 1875TIP3    H131736   6.864   0.412   1.622 -0.0415  1.2775 -0.2955
 1875TIP3    H231737   6.922   0.374   1.757  0.0384 -0.9169 -0.9035
 1876TIP3   OH231738   4.588   1.222   7.297 -0.4379  0.0586 -0.2614
 1876TIP3    H131739   4.613   1.284   7.366  1.4479  0.4290 -1.2081
 1876TIP3    H231740   4.534   1.273   7.237 -1.4516 -0.0653  0.5222
 1877TIP3   OH231741   3.511   6.555   6.642 -0.5100  0.0035 -0.1979
 1877TIP3    H131742   3.601   6.532   6.616 -1.2699 -3.9542 -0.0222
 1877TIP3    H231743   3.516   6.569   6.736  0.0345  0.7003 -0.3202
 1878TIP3   OH231744   7.993   4.200   1.206 -0.0696 -0.0552  0.2863
 1878TIP3    H131745   7.945   4.170   1.284  0.3717 -0.5709  0.3707
 1878TIP3    H231746   8.017   4.290   1.226  0.4665 -0.3328  0.9794
 1879TIP3   OH231747   1.012   7.252   1.507 -0.5041  0.2682  0.0090
 1879TIP3    H131748   1.067   7.180   1.537  1.4513  1.9585  0.7258
 1879TIP3    H231749   1.059   7.288   1.431 -1.1625  1.1116 -0.0154
 1880TIP3   OH231750   7.466   0.824   0.452  0.4322 -0.1105 -0.2603
 1880TIP3    H131751   7.555   0.858   0.463  0.9430 -0.7907 -1.9634
 1880TIP3    H231752   7.465   0.788   0.363 -0.7204 -2.5740  0.6669
 1881TIP3   OH231753   0.456   0.406   6.883 -0.0636  0.2946 -0.4655
 1881TIP3    H131754   0.536   0.369   6.920 -0.2342 -0.7637 -1.0929
 1881TIP3    H231755   0.475   0.416   6.790 -0.7371 -0.2322 -0.6707
 1882TIP3   OH231756   6.504   4.277   1.594  0.0834 -0.1821  0.3118
 1882TIP3    H131757   6.509   4.193   1.548  0.2870 -0.2515  0.4581
 1882TIP3    H231758   6.595   4.307   1.600 -0.1249  0.9071 -1.3047
 1883TIP3   OH231759   7.126   7.666   0.454 -0.3054 -0.0949  0.0972
 1883TIP3    H131760   7.126   7.734   0.386 -2.4023 -0.1315 -0.0047
 1883TIP3    H231761   7.051   7.611   0.432 -0.0676 -1.0377  1.5537
 1884TIP3   OH231762   3.464   2.290   1.681  0.9524 -0.3103  0.4094
 1884TIP3    H131763   3.454   2.237   1.760 -0.1189 -2.3020 -0.9895
 1884TIP3    H231764   3.411   2.368   1.698  1.1949 -0.4303  1.8642
 1885TIP3   OH231765   7.504   6.079   0.327  0.3726 -0.9482 -0.8956
 1885TIP3    H131766   7.575   6.131   0.366  0.4821  1.0842 -3.5770
 1885TIP3    H231767   7.425   6.131   0.341 -0.1432 -1.8011 -0.5151
 1886TIP3   OH231768   2.992   6.859   7.495  0.6079 -0.4088  0.0183
 1886TIP3    H131769   3.000   6.771   7.459  0.3847 -1.3762  2.2173
 1886TIP3    H231770   3.062   6.865   7.560  0.8406  1.1924 -0.3317
 1887TIP3   OH231771   3.599   8.093   0.487 -0.0598  0.2530 -0.0541
 1887TIP3    H131772   3.694   8.095   0.480 -0.1292 -0.6298 -1.7301
 1887TIP3    H231773   3.567   8.112   0.399 -1.4380  0.2941  0.4212
 1888TIP3   OH231774   5.767   7.866   6.435 -0.5794  0.1581 -0.3445
 1888TIP3    H131775   5.702   7.937   6.432  0.5076  1.2119 -0.0133
 1888TIP3    H231776   5.781   7.852   6.529 -2.6739 -2.3596 -0.2910
 1889TIP3   OH231777   1.941   5.889   6.837 -0.4238 -0.2164 -0.0127
 1889TIP3    H131778   1.947   5.898   6.742 -0.0545 -0.3425 -0.0002
 1889TIP3    H231779   2.030   5.872   6.866 -0.7930 -2.1525  0.1426
 1890TIP3   OH231780   0.389   1.626   1.194  0.5028 -0.2673  0.9978
 1890TIP3    H131781   0.337   1.668   1.262 -0.3872 -0.3159  0.3598
 1890TIP3    H231782   0.428   1.698   1.144  0.0297 -0.2106  0.7059
 1891TIP3   OH231783   0.918   1.843   1.885 -0.2014  0.3893 -0.6552
 1891TIP3    H131784   0.891   1.751   1.888 -1.6166  0.7861  0.2439
 1891TIP3    H231785   1.003   1.842   1.842  0.5011 -1.5008  0.6455
 1892TIP3   OH231786   6.222   4.996   7.839 -0.3120 -0.5395 -0.0060
 1892TIP3    H131787   6.298   4.953   7.878  0.6070 -0.0311 -1.1739
 1892TIP3    H231788   6.215   4.958   7.752  0.0027  1.0288 -0.7461
 1893TIP3   OH231789   3.233   6.548   0.404  0.3623  0.0618  0.4859
 1893TIP3    H131790   3.254   6.604   0.330 -3.9882  2.4807  0.7255
 1893TIP3    H231791   3.286   6.581   0.476 -0.5694  2.6431  0.0842
 1894TIP3   OH231792   6.336   5.906   7.207  0.0564 -0.2081  0.1033
 1894TIP3    H131793   6.351   5.811   7.204  0.1881 -0.2403  1.4327
 1894TIP3    H231794   6.248   5.917   7.170 -0.6540 -1.0371  1.4517
 1895TIP3   OH231795   5.161   4.247   2.216  0.1677  0.4926  0.1152
 1895TIP3    H131796   5.202   4.311   2.273 -1.0654  0.6633  0.8445
 1895TIP3    H231797   5.208   4.165   2.234  0.8283  0.8836  0.1955
 1896TIP3   OH231798   3.330   1.754   7.333 -0.6592  0.3659  0.2247
 1896TIP3    H131799   3.299   1.829   7.282 -0.7722  0.6886  0.7564
 1896TIP3    H231800   3.257   1.732   7.390 -0.0230  0.9813  1.3197
 1897TIP3   OH231801   3.884   6.300   1.813 -0.2198 -0.1844 -0.3176
 1897TIP3    H131802   3.791   6.286   1.827  0.1940 -1.8212  1.0117
 1897TIP3    H231803   3.889   6.339   1.725 -2.0570 -1.2175 -0.9286
 1898TIP3   OH231804   7.576   5.031   7.353 -0.7218  0.5596  0.0846
 1898TIP3    H131805   7.618   4.946   7.360  0.2904  1.1173  1.1772
 1898TIP3    H231806   7.612   5.069   7.273  0.8425  0.9787  0.9414
 1899TIP3   OH231807   4.407   5.692   0.279  0.2904 -0.2874  0.2197
 1899TIP3    H131808   4.367   5.669   0.194 -0.5615  0.9975  0.2453
 1899TIP3    H231809   4.473   5.757   0.257 -1.7483  2.1094  0.7341
 1900TIP3   OH231810   6.668   3.660   7.524 -0.6798 -0.5783 -0.8062
 1900TIP3    H131811   6.578   3.675   7.551 -0.6691 -1.0652 -0.4917
 1900TIP3    H231812   6.681   3.566   7.533 -0.4759 -0.6733 -1.9102
 1901TIP3   OH231813   6.212   7.595   5.828 -0.1852  0.0413 -0.1120
 1901TIP3    H131814   6.135   7.650   5.811 -0.9805 -0.4165  1.7478
 1901TIP3    H231815   6.197   7.516   5.776 -0.0773  0.6679 -1.1327
 1902TIP3   OH231816   7.852   0.377   7.204  0.3790 -0.4712 -0.4860
 1902TIP3    H131817   7.786   0.337   7.147  0.2514 -0.4251 -0.3669
 1902TIP3    H231818   7.852   0.323   7.283 -1.1512  0.8960  0.4957
 1903TIP3   OH231819   4.126   3.475   7.008  0.2742 -0.1064  0.2572
 1903TIP3    H131820   4.184   3.446   7.080 -0.0793  0.8851  0.9588
 1903TIP3    H231821   4.182   3.530   6.953  0.5357 -0.8359 -0.2205
 1904TIP3   OH231822   2.299   2.570   0.541 -0.1494 -0.2977 -0.4865
 1904TIP3    H131823   2.348   2.619   0.607 -0.5032  0.1591 -0.5543
 1904TIP3    H231824   2.309   2.478   0.567  2.4264 -0.4229 -1.6345
 1905TIP3   OH231825   0.696   3.344   0.431  0.2832 -0.5393 -0.1876
 1905TIP3    H131826   0.699   3.437   0.454 -0.0839 -0.2505 -1.2332
 1905TIP3    H231827   0.748   3.300   0.498 -0.3869  0.2988  0.9063
 1906TIP3   OH231828   6.532   7.276   1.136  0.3874 -0.2533  0.6232
 1906TIP3    H131829   6.599   7.340   1.160 -0.5678  0.4350  1.4713
 1906TIP3    H231830   6.583   7.198   1.110  1.5331  0.5524  0.3660
 1907TIP3   OH231831   4.544   2.802   6.736 -0.2784  0.0254 -0.1895
 1907TIP3    H131832   4.593   2.722   6.755  0.9507  0.5496 -1.0900
 1907TIP3    H231833   4.480   2.776   6.670 -1.1280 -0.6070  0.8336
 1908TIP3   OH231834   2.054   0.274   1.550  0.6166 -0.5144  0.0626
 1908TIP3    H131835   2.003   0.326   1.488  0.4373  0.7144  1.1827
 1908TIP3    H231836   2.142   0.272   1.513  0.8928  1.5352  0.4690
 1909TIP3   OH231837   6.799   7.662   6.964 -0.9914  0.0704  0.6522
 1909TIP3    H131838   6.783   7.756   6.957 -0.1088  0.1903  0.0860
 1909TIP3    H231839   6.811   7.647   7.058 -0.5357  0.6375  0.6903
 1910TIP3   OH231840   6.527   1.811   0.833 -0.3631 -0.2001  0.6988
 1910TIP3    H131841   6.573   1.788   0.914  0.7739 -0.9998 -0.1340
 1910TIP3    H231842   6.591   1.794   0.764 -1.0007  1.3234 -0.3145
 1911TIP3   OH231843   6.970   3.548   6.645  0.4804 -0.3043  0.0830
 1911TIP3    H131844   7.043   3.573   6.589  1.0496 -1.0372  0.4793
 1911TIP3    H231845   7.007   3.547   6.733 -0.1757 -0.0427  0.3683
 1912TIP3   OH231846   8.043   2.230   1.522 -0.3907 -0.0120 -0.2763
 1912TIP3    H131847   8.093   2.229   1.604 -1.1973 -0.8284  0.2314
 1912TIP3    H231848   7.952   2.216   1.550 -0.6860 -0.2178 -1.3046
 1913TIP3   OH231849   0.775   4.245   1.933 -0.2689 -0.3458 -0.1482
 1913TIP3    H131850   0.710   4.303   1.974  1.1153  0.8539  0.4390
 1913TIP3    H231851   0.769   4.164   1.983 -0.7599  0.0338  0.4235
 1914TIP3   OH231852   2.349   3.980   1.727 -0.1301 -0.3820  0.0594
 1914TIP3    H131853   2.388   3.955   1.643  0.5536  1.1737 -0.1306
 1914TIP3    H231854   2.255   3.974   1.712 -0.0232 -2.1551 -0.1318
 1915TIP3   OH231855   7.686   1.130   6.894  0.2321 -0.3553 -0.0833
 1915TIP3    H131856   7.741   1.106   6.819 -1.3611  0.0035 -1.4227
 1915TIP3    H231857   7.610   1.073   6.887 -0.4427  0.4312  0.6286
 1916TIP3   OH231858   2.198   5.316   1.524  0.0195 -0.0178  0.0077
 1916TIP3    H131859   2.194   5.406   1.555 -2.1454 -0.5132  1.4229
 1916TIP3    H231860   2.235   5.267   1.598  0.2668 -0.4285 -0.3849
 1917TIP3   OH231861   7.165   6.089   0.271  0.6665  0.0215 -0.2963
 1917TIP3    H131862   7.195   6.070   0.182  0.9000  0.1551 -0.2457
 1917TIP3    H231863   7.122   6.175   0.262  1.1673  0.2860 -0.1723
 1918TIP3   OH231864   4.209   5.216   0.680 -0.1511  0.1431  0.4463
 1918TIP3    H131865   4.260   5.205   0.599  2.2186 -1.0493  1.9917
 1918TIP3    H231866   4.230   5.304   0.710  0.5240 -0.1177  0.7501
 1919TIP3   OH231867   1.028   0.796   1.399  0.0214 -0.0336  0.2586
 1919TIP3    H131868   1.049   0.774   1.308  0.6978 -1.3902  0.7092
 1919TIP3    H231869   1.027   0.892   1.401  0.6704  0.0229 -1.0355
 1920TIP3   OH231870   2.115   7.627   0.782 -0.0612  0.1087  0.3625
 1920TIP3    H131871   2.057   7.654   0.853  1.4490 -0.9301  2.0710
 1920TIP3    H231872   2.203   7.650   0.812  0.6880 -0.9205 -0.9127
 1921TIP3   OH231873   7.231   0.083   6.393 -0.0785  0.7119 -0.1484
 1921TIP3    H131874   7.211   0.007   6.338  1.5422 -0.2113  0.4798
 1921TIP3    H231875   7.264   0.149   6.331 -0.3312  0.4683 -0.5495
 1922TIP3   OH231876   6.927   0.057   7.311 -0.0787 -0.4222 -0.1976
 1922TIP3    H131877   6.961  -0.018   7.262  1.8616  0.5848 -0.4724
 1922TIP3    H231878   7.005   0.107   7.336 -1.3547  2.2187 -1.1642
 1923TIP3   OH231879   7.970   4.223   6.993  0.5122 -0.3651  0.6223
 1923TIP3    H131880   7.894   4.241   7.049 -0.5346  2.4741 -1.4803
 1923TIP3    H231881   8.035   4.289   7.019 -0.4420  1.8454 -2.0899
 1924TIP3   OH231882   3.795   2.787   7.673  0.5130 -0.0422 -0.3890
 1924TIP3    H131883   3.784   2.693   7.659 -0.1603  0.0228 -0.3278
 1924TIP3    H231884   3.889   2.802   7.662  1.1999 -1.2570  2.7637
 1925TIP3   OH231885   3.804   5.942   6.804 -0.2060  0.1407  0.3209
 1925TIP3    H131886   3.893   5.973   6.787 -0.6921  0.5314 -1.8293
 1925TIP3    H231887   3.804   5.851   6.774  0.2678 -0.9935  3.3652
 1926TIP3   OH231888   4.255   3.068   0.792 -0.2437 -0.1695 -0.1057
 1926TIP3    H131889   4.256   3.164   0.798  0.0683 -0.2445  2.4932
 1926TIP3    H231890   4.177   3.042   0.841  0.6863 -1.2598  0.8700
 1927TIP3   OH231891   4.369   3.023   6.833 -0.0315 -0.0759  0.7954
 1927TIP3    H131892   4.343   2.945   6.884  1.8533 -0.1789  1.7014
 1927TIP3    H231893   4.444   2.993   6.782  0.6349  1.1115  1.0577
 1928TIP3   OH231894   1.682   3.229   6.196 -0.3906 -0.0182  0.2139
 1928TIP3    H131895   1.670   3.134   6.193  0.6119 -0.1322 -0.5018
 1928TIP3    H231896   1.734   3.243   6.276 -1.2487  0.0264  0.7803
 1929TIP3   OH231897   2.572   5.759   1.385  0.5637 -0.5290  0.5996
 1929TIP3    H131898   2.632   5.821   1.343 -0.7096 -1.1604 -2.4213
 1929TIP3    H231899   2.613   5.674   1.371 -0.7222 -0.9159 -1.0607
 1930TIP3   OH231900   0.819   0.804   7.485  0.1198  0.2840  0.2183
 1930TIP3    H131901   0.861   0.800   7.399  0.7549 -0.7190  0.5491
 1930TIP3    H231902   0.888   0.775   7.545 -0.6336 -0.0391  0.9376
 1931TIP3   OH231903   6.730   4.512   7.700 -0.0097 -0.3317  0.1430
 1931TIP3    H131904   6.705   4.430   7.656 -0.7927 -0.6283  1.1048
 1931TIP3    H231905   6.666   4.522   7.770  1.9544 -0.5835  2.0791
 1932TIP3   OH231906   5.059   6.154   1.430 -0.3324  0.1783 -0.0850
 1932TIP3    H131907   5.141   6.187   1.393  0.4455 -2.2910 -0.7967
 1932TIP3    H231908   5.083   6.123   1.517 -0.5041 -0.4589 -0.2560
 1933TIP3   OH231909   5.506   6.065   6.880  0.1550  0.0349 -0.4024
 1933TIP3    H131910   5.489   6.066   6.786  1.5483  2.6279 -0.7487
 1933TIP3    H231911   5.601   6.078   6.886  0.2742 -1.3363  1.3949
 1934TIP3   OH231912   5.671   7.063   1.433 -0.5652  0.0834  0.0681
 1934TIP3    H131913   5.600   7.035   1.491 -0.7292 -0.5700 -0.4426
 1934TIP3    H231914   5.676   6.995   1.367 -0.6910  1.0455 -0.9642
 1935TIP3   OH231915   7.136   6.403   6.570 -0.3248  0.6017  0.1885
 1935TIP3    H131916   7.194   6.473   6.601 -0.5598  0.7590  0.2782
 1935TIP3    H231917   7.156   6.395   6.477  0.6421 -0.1158  0.4425
 1936TIP3   OH231918   2.230   4.106   2.834  0.1366  0.2625 -0.0746
 1936TIP3    H131919   2.207   4.014   2.843  0.7040  0.1688  0.5140
 1936TIP3    H231920   2.149   4.149   2.807  0.0244 -0.4988 -0.9942
 1937TIP3   OH231921   2.447   7.736   0.319  0.2554  0.0971 -0.4393
 1937TIP3    H131922   2.488   7.683   0.388  1.6883  1.4206 -0.2054
 1937TIP3    H231923   2.521   7.773   0.271 -0.7304  0.3596 -1.7877
 1938TIP3   OH231924   3.612   1.397   6.381  0.0467 -0.2614  0.3454
 1938TIP3    H131925   3.546   1.458   6.412 -2.2716 -2.6295  0.4460
 1938TIP3    H231926   3.690   1.418   6.432 -0.6275  2.4921  0.3913
 1939TIP3   OH231927   5.121   7.817   0.687  0.4300  0.1016  0.1587
 1939TIP3    H131928   5.136   7.839   0.779 -0.5332  0.7531  0.1824
 1939TIP3    H231929   5.045   7.870   0.663  0.7822  0.0703 -1.0665
 1940TIP3   OH231930   4.933   3.291   7.855  0.1268 -0.0215 -0.1989
 1940TIP3    H131931   4.900   3.318   7.769  0.3627  0.5936 -0.1085
 1940TIP3    H231932   5.014   3.342   7.866  0.7428 -0.9856 -0.1259
 1941TIP3   OH231933   7.250   7.349   0.227  0.1518  0.2582  0.0647
 1941TIP3    H131934   7.256   7.395   0.143 -1.0197  0.5357  0.1098
 1941TIP3    H231935   7.293   7.265   0.211 -1.6884 -0.4745 -1.4299
 1942TIP3   OH231936   3.068   7.972   1.784 -0.3596 -0.1739 -0.4365
 1942TIP3    H131937   3.119   8.023   1.722 -0.7118  0.3588 -0.2982
 1942TIP3    H231938   3.018   8.038   1.834  1.7278 -0.3359  2.1022
 1943TIP3   OH231939   0.677   1.042   6.381  0.2583  0.1662 -0.4830
 1943TIP3    H131940   0.594   1.008   6.414  0.4275  0.3752  0.1630
 1943TIP3    H231941   0.662   1.136   6.369  0.6709  0.3744  0.5177
 1944TIP3   OH231942   3.422   0.733   1.798 -0.6777  0.2577 -0.0309
 1944TIP3    H131943   3.500   0.718   1.852 -1.2848  2.8772  1.8006
 1944TIP3    H231944   3.354   0.678   1.837 -0.8814  1.4825  1.4562
 1945TIP3   OH231945   4.737   6.497   0.325  0.8709  0.2568  0.4458
 1945TIP3    H131946   4.822   6.468   0.293  1.4530 -1.7304  3.3993
 1945TIP3    H231947   4.674   6.451   0.269  1.5648  2.2743 -2.2207
 1946TIP3   OH231948   5.002   6.399   0.237  0.4677  0.1253 -0.4301
 1946TIP3    H131949   5.052   6.480   0.235  0.2290  0.2672 -0.6597
 1946TIP3    H231950   5.069   6.330   0.239  0.6762  0.3362  0.5125
 1947TIP3   OH231951   5.847   1.252   1.246 -0.3566  0.8686 -0.0395
 1947TIP3    H131952   5.938   1.245   1.275 -0.0168 -1.5438 -1.3815
 1947TIP3    H231953   5.812   1.329   1.291  1.7876  0.7481  1.9671
 1948TIP3   OH231954   4.206   7.223   7.865  0.1275  0.3400  0.0484
 1948TIP3    H131955   4.252   7.305   7.884  0.1721  0.2211  0.4639
 1948TIP3    H231956   4.159   7.203   7.946  0.1942 -0.0973 -0.0188
 1949TIP3   OH231957   5.943   7.328   0.846 -0.1735  0.2828 -0.0467
 1949TIP3    H131958   5.868   7.269   0.855  1.0247 -1.0605  1.3948
 1949TIP3    H231959   6.020   7.272   0.855  1.0834  1.5165 -2.1779
 1950TIP3   OH231960   5.207   7.484   6.815 -0.2289 -0.3558 -0.1852
 1950TIP3    H131961   5.302   7.491   6.827 -0.1947 -1.0144 -0.0518
 1950TIP3    H231962   5.196   7.468   6.721 -0.3886  2.7611 -0.8010
 1951TIP3   OH231963   5.452   2.119   6.521  0.3994 -0.2238  0.0547
 1951TIP3    H131964   5.434   2.159   6.607  1.6497 -0.2939  0.3657
 1951TIP3    H231965   5.483   2.191   6.467  1.1851 -0.4750  0.1601
 1952TIP3   OH231966   0.391   2.602   6.847  0.3202  0.0669 -0.6042
 1952TIP3    H131967   0.406   2.695   6.863 -1.7085  0.2885  0.4543
 1952TIP3    H231968   0.466   2.558   6.887 -0.2338  1.1244  1.7565
 1953TIP3   OH231969   1.738   4.916   0.357  0.9628 -0.5754  0.2573
 1953TIP3    H131970   1.793   4.928   0.280  0.5565  0.3485  0.1046
 1953TIP3    H231971   1.651   4.945   0.330  0.7751 -0.3977  1.0178
 1954TIP3   OH231972   4.795   7.795   0.924 -0.4617  0.2298 -0.1281
 1954TIP3    H131973   4.734   7.824   0.857 -0.5001 -0.1000 -0.2364
 1954TIP3    H231974   4.881   7.823   0.892 -0.6055  1.1195  0.2574
 1955TIP3   OH231975   2.114   3.979   1.194  0.0091 -0.7369  0.0424
 1955TIP3    H131976   2.129   4.051   1.132 -0.7737 -0.1573  0.5089
 1955TIP3    H231977   2.052   3.922   1.148 -0.6484 -0.2568  0.3049
 1956TIP3   OH231978   3.745   0.919   6.536 -0.0486 -0.2997 -0.3307
 1956TIP3    H131979   3.737   0.926   6.631 -0.0453 -0.0614 -0.3473
 1956TIP3    H231980   3.787   1.001   6.509  0.8329 -0.7771 -0.4400
 1957TIP3   OH231981   1.765   3.180   2.243  0.2345  0.2905 -0.4449
 1957TIP3    H131982   1.795   3.204   2.330 -0.3359 -1.2377  0.2144
 1957TIP3    H231983   1.689   3.123   2.259  0.1246 -0.0156 -1.9257
 1958TIP3   OH231984   1.643   6.018   1.927  0.4973  0.2198  0.2330
 1958TIP3    H131985   1.576   6.054   1.986  0.8999 -1.0449  1.5065
 1958TIP3    H231986   1.721   6.070   1.945  0.4637  0.2201  0.3740
 1959TIP3   OH231987   6.498   3.110   7.426  0.0892 -0.8053 -0.2988
 1959TIP3    H131988   6.512   3.024   7.466  0.9027 -0.0354  1.2056
 1959TIP3    H231989   6.407   3.110   7.397  0.0603 -2.1298 -0.2299
 1960TIP3   OH231990   1.180   7.691   0.272 -0.1319 -0.0512 -0.5704
 1960TIP3    H131991   1.159   7.726   0.186 -2.1147 -0.4398 -0.2940
 1960TIP3    H231992   1.276   7.689   0.275 -0.0240  0.7595 -2.4200
 1961TIP3   OH231993   3.406   4.814   1.434  0.0664 -0.0456  0.3846
 1961TIP3    H131994   3.402   4.840   1.526 -0.7084  0.5658  0.1886
 1961TIP3    H231995   3.480   4.753   1.429  0.4730  0.3623  1.2974
 1962TIP3   OH231996   1.885   5.389   0.493  0.7016  0.0161  0.0711
 1962TIP3    H131997   1.958   5.359   0.546  1.1486  1.3055  0.2294
 1962TIP3    H231998   1.922   5.458   0.438 -0.7657  2.1108  1.5510
 1963TIP3   OH231999   2.461   5.537   0.842  0.5256  0.0258  0.2941
 1963TIP3    H132000   2.536   5.595   0.852 -0.8496  1.5043  4.0193
 1963TIP3    H232001   2.386   5.596   0.834 -0.6631 -1.2465  1.5312
 1964TIP3   OH232002   6.008   5.763   0.500  0.1955  0.2307 -0.4579
 1964TIP3    H132003   5.969   5.817   0.568 -2.2612 -0.3599 -1.2880
 1964TIP3    H232004   6.095   5.801   0.485  0.6888  0.5648  2.7120
 1965TIP3   OH232005   6.741   3.741   0.922 -0.1381  0.2132  0.1552
 1965TIP3    H132006   6.712   3.651   0.905 -0.9752 -0.0311  2.6009
 1965TIP3    H232007   6.661   3.793   0.916  0.2817  0.7695 -0.8577
 1966TIP3   OH232008   4.988   1.969   1.521 -0.3028  0.0614 -0.2266
 1966TIP3    H132009   4.987   2.057   1.558 -0.4626 -0.5212  1.2076
 1966TIP3    H232010   4.918   1.970   1.455 -1.9315  0.3697  1.4121
 1967TIP3   OH232011   6.542   0.183   6.314 -0.1409 -0.0724 -0.1808
 1967TIP3    H132012   6.530   0.123   6.240  1.5253 -0.3940 -0.2315
 1967TIP3    H232013   6.455   0.219   6.330 -0.9303 -1.5094 -1.0065
 1968TIP3   OH232014   1.652   6.050   7.515 -0.4191  0.1969  0.7046
 1968TIP3    H132015   1.567   6.083   7.486  0.1424  4.2133  2.8697
 1968TIP3    H232016   1.714   6.090   7.454  0.0690 -0.5973  0.6805
 1969TIP3   OH232017   0.353   3.581   6.240  0.1534  0.0937 -0.0082
 1969TIP3    H132018   0.265   3.561   6.271  0.6157  0.2840  1.5107
 1969TIP3    H232019   0.340   3.645   6.171 -0.8809  0.5666  0.6035
 1970TIP3   OH232020   1.039   0.109   6.136  0.0934 -0.1407 -0.2159
 1970TIP3    H132021   1.046   0.182   6.074  1.3771  1.1580  1.3796
 1970TIP3    H232022   0.967   0.133   6.193  0.1618 -0.3949 -0.0250
 1971TIP3   OH232023   2.934   3.159   7.934 -0.0582  0.3502  0.0435
 1971TIP3    H132024   2.893   3.073   7.947 -1.7444  0.9473 -0.9849
 1971TIP3    H232025   2.956   3.188   8.023  1.9136 -1.7269  0.3094
 1972TIP3   OH232026   4.188   2.076   1.711 -0.8969 -0.3955  0.1329
 1972TIP3    H132027   4.151   2.164   1.722  1.8554  0.6822  2.4327
 1972TIP3    H232028   4.125   2.018   1.752 -1.0979  1.0474  2.0189
 1973TIP3   OH232029   7.360   5.972   1.940 -0.0975 -0.2944  0.6314
 1973TIP3    H132030   7.435   6.022   1.972  1.1455 -1.1009 -0.8758
 1973TIP3    H232031   7.374   5.884   1.974 -0.6431 -0.3293  0.7707
 1974TIP3   OH232032   1.238   5.460   1.907  0.0745  0.4698 -0.4672
 1974TIP3    H132033   1.323   5.448   1.949 -0.0527 -2.9482 -0.9248
 1974TIP3    H232034   1.177   5.412   1.962 -1.1576  0.9005 -1.4050
 1975TIP3   OH232035   7.178   1.301   7.530  0.2809 -0.4821  0.0779
 1975TIP3    H132036   7.215   1.236   7.470 -2.2527 -3.4986  1.5002
 1975TIP3    H232037   7.198   1.268   7.617 -1.3093  0.4701  0.8536
 1976TIP3   OH232038   5.940   0.004   6.352  0.3045  0.1752 -0.4769
 1976TIP3    H132039   5.897   0.090   6.348 -0.4450 -0.0354  1.5556
 1976TIP3    H232040   5.868  -0.058   6.367  1.0099 -0.5673 -0.0353
 1977TIP3   OH232041   0.076   5.467   6.823 -0.0428 -0.1265 -0.1046
 1977TIP3    H132042  -0.007   5.489   6.781 -0.1993 -1.6681 -0.6366
 1977TIP3    H232043   0.116   5.401   6.766  1.1393 -0.0663  0.6123
 1978TIP3   OH232044   2.640   7.767   7.105  0.3327 -0.1307  0.7889
 1978TIP3    H132045   2.627   7.856   7.140 -0.5080 -0.5561  1.5892
 1978TIP3    H232046   2.551   7.732   7.095  0.6794 -1.0732  0.9650
 1979TIP3   OH232047   6.112   0.599   1.345 -0.6488 -0.2047 -0.0634
 1979TIP3    H132048   6.161   0.620   1.265  0.3962  1.7545  0.9934
 1979TIP3    H232049   6.020   0.602   1.319 -0.3120 -0.3036 -1.3340
 1980TIP3   OH232050   3.623   6.610   5.578 -0.0506 -0.0075 -0.4003
 1980TIP3    H132051   3.705   6.581   5.538  0.5079 -1.4049  1.6268
 1980TIP3    H232052   3.614   6.556   5.656 -2.4199  0.8143 -0.0376
 1981TIP3   OH232053   0.359   8.093   6.181  0.3059 -0.2514  0.2662
 1981TIP3    H132054   0.428   8.027   6.171  0.5061 -0.0705  0.4312
 1981TIP3    H232055   0.287   8.046   6.224  0.3344 -0.4355  0.1156
 1982TIP3   OH232056   5.335   4.322   7.299  0.2910 -0.0303  0.2691
 1982TIP3    H132057   5.430   4.318   7.283  0.5047  2.6576  0.3701
 1982TIP3    H232058   5.328   4.329   7.395  0.0295  0.1229  0.2388
 1983TIP3   OH232059   2.886   7.627   7.085  0.8230  0.0666  0.2558
 1983TIP3    H132060   2.843   7.542   7.095  0.8464 -0.0246 -0.3818
 1983TIP3    H232061   2.815   7.691   7.095  0.6947 -0.0499  0.0958
 1984TIP3   OH232062   2.904   3.913   0.367  0.3988  0.4445  0.5110
 1984TIP3    H132063   2.957   3.893   0.290  2.2289  2.7771  1.0478
 1984TIP3    H232064   2.958   3.886   0.441 -1.4108 -1.9363  1.0816
 1985TIP3   OH232065   1.790   5.652   6.683 -0.5732  0.3011 -0.0422
 1985TIP3    H132066   1.754   5.700   6.609 -1.0848  0.4105  0.2714
 1985TIP3    H232067   1.878   5.627   6.656 -0.7747  0.3054 -0.7010
 1986TIP3   OH232068   1.635   0.293   7.277  0.1009  0.3223 -0.4625
 1986TIP3    H132069   1.547   0.306   7.313  1.1209 -1.3468  3.0948
 1986TIP3    H232070   1.684   0.371   7.303  0.0679  0.6339 -1.2796
 1987TIP3   OH232071   6.381   7.805   1.822  0.3620  0.0815 -0.3619
 1987TIP3    H132072   6.456   7.816   1.763  0.0019 -2.2129 -1.3649
 1987TIP3    H232073   6.413   7.747   1.891  0.0148  0.5787  0.2228
 1988TIP3   OH232074   2.878   1.534   1.416  0.2528  0.5246 -0.0534
 1988TIP3    H132075   2.919   1.562   1.498 -0.2006  0.6652  0.1302
 1988TIP3    H232076   2.951   1.511   1.359  0.7905  3.7543 -0.8598
 1989TIP3   OH232077   3.593   6.124   6.961 -0.3673 -0.2802  0.5406
 1989TIP3    H132078   3.676   6.079   6.943  0.1679 -0.2861  2.7564
 1989TIP3    H232079   3.603   6.157   7.050 -1.9500  1.5794  0.0846
 1990TIP3   OH232080   7.514   4.836   6.157  0.5101  0.1084 -0.1011
 1990TIP3    H132081   7.435   4.810   6.110  0.6327  1.4079 -1.0735
 1990TIP3    H232082   7.481   4.874   6.239  0.2155 -0.6030  0.1233
 1991TIP3   OH232083   3.392   0.331   7.296  0.2054  0.1860  0.1036
 1991TIP3    H132084   3.472   0.291   7.329  0.5940 -0.0313 -1.0591
 1991TIP3    H232085   3.377   0.406   7.354 -0.5072 -1.5566  2.2818
 1992TIP3   OH232086   1.840   1.663   0.166 -0.6831 -0.3473 -0.7124
 1992TIP3    H132087   1.843   1.715   0.086 -0.9635 -0.5780 -0.8758
 1992TIP3    H232088   1.890   1.584   0.145 -0.7761 -0.4182 -0.6698
 1993TIP3   OH232089   3.144   5.933   0.200  0.1713  0.1491  0.3309
 1993TIP3    H132090   3.071   5.874   0.188 -0.2358  0.8940 -0.9718
 1993TIP3    H232091   3.150   5.944   0.295  0.2173 -1.8861  0.6025
 1994TIP3   OH232092   1.553   7.884   7.223  0.1899  0.6993 -0.3026
 1994TIP3    H132093   1.535   7.796   7.259  1.2938  0.7686  0.4780
 1994TIP3    H232094   1.638   7.875   7.181  1.1908  1.8277  1.3887
 1995TIP3   OH232095   1.912   2.512   7.154 -0.1875  0.2803  0.0772
 1995TIP3    H132096   1.817   2.502   7.152 -0.0564 -1.0017 -0.5531
 1995TIP3    H232097   1.938   2.480   7.240 -0.2857  0.2814  0.1075
 1996TIP3   OH232098   2.862   7.863   1.299  0.1068 -0.7994  0.0732
 1996TIP3    H132099   2.890   7.862   1.391  0.8705  4.1433  0.1900
 1996TIP3    H232100   2.766   7.860   1.304  0.1192 -0.2347  1.1269
 1997TIP3   OH232101   0.421   4.961   1.167  0.5402  0.2056 -0.4571
 1997TIP3    H132102   0.387   4.949   1.256 -0.4126  2.3786 -0.4736
 1997TIP3    H232103   0.363   5.025   1.127  1.8395  0.4025 -2.1615
 1998TIP3   OH232104   3.232   4.929   7.321  0.0944  0.1931  0.4661
 1998TIP3    H132105   3.188   4.876   7.388 -0.1939  1.1600  1.0672
 1998TIP3    H232106   3.296   4.869   7.282 -1.1653 -0.9995  0.1423
 1999TIP3   OH232107   6.718   4.452   7.122 -0.0528  0.0500 -0.7342
 1999TIP3    H132108   6.723   4.537   7.165 -2.2077 -0.5554  0.9495
 1999TIP3    H232109   6.631   4.451   7.082 -0.2050 -1.4585 -0.4258
 2000TIP3   OH232110   4.173   0.130   5.612 -0.7227 -0.3432 -0.4784
 2000TIP3    H132111   4.091   0.094   5.644 -1.6071  1.7658 -0.1794
 2000TIP3    H232112   4.158   0.144   5.519  0.0471 -1.7966 -0.8462
 2001TIP3   OH232113   5.859   6.652   1.732 -0.0759  0.6566 -0.1499
 2001TIP3    H132114   5.786   6.699   1.692 -0.0053  0.9637  0.0772
 2001TIP3    H232115   5.910   6.619   1.658 -0.8432 -0.2037 -0.3147
 2002TIP3   OH232116   5.705   2.372   1.457 -0.2094  0.4441  0.2036
 2002TIP3    H132117   5.683   2.453   1.411 -1.8506  0.3620  0.7701
 2002TIP3    H232118   5.792   2.388   1.493 -0.5642  2.0565  0.4534
 2003TIP3   OH232119   3.231   6.888   0.535 -0.7669  0.3071 -0.1242
 2003TIP3    H132120   3.164   6.834   0.493 -0.3675 -1.4476  1.4097
 2003TIP3    H232121   3.193   6.913   0.619 -0.1371  0.7398  0.0436
 2004TIP3   OH232122   8.074   0.199   7.018 -0.6849 -0.0137 -0.2483
 2004TIP3    H132123   8.016   0.164   6.950  1.1322 -3.0887 -0.3828
 2004TIP3    H232124   8.133   0.257   6.970 -1.8982  1.0439 -0.5378
 2005TIP3   OH232125   5.764   3.009   7.378  0.1724  0.4651  0.6582
 2005TIP3    H132126   5.735   2.970   7.460 -0.4114 -0.0702  0.2054
 2005TIP3    H232127   5.707   3.085   7.367 -1.3448 -0.7532 -0.3809
 2006TIP3   OH232128   0.940   0.269   6.942 -0.7192 -0.4699 -0.0264
 2006TIP3    H132129   0.955   0.342   7.002  1.0865 -0.0349 -0.9576
 2006TIP3    H232130   0.993   0.198   6.977 -0.7093 -0.6282 -0.3607
 2007TIP3   OH232131   3.887   6.944   7.497 -0.2940 -0.1272  0.0898
 2007TIP3    H132132   3.893   7.007   7.425  1.4157 -1.5062 -1.0867
 2007TIP3    H232133   3.802   6.902   7.485 -0.6878  0.7175 -0.1733
 2008TIP3   OH232134   5.051   6.050   5.908 -0.2970  0.8392 -0.5600
 2008TIP3    H132135   5.009   6.065   5.993  3.2058  2.0904  1.1416
 2008TIP3    H232136   5.071   5.956   5.908 -0.7619  0.7350 -0.2392
 2009TIP3   OH232137   3.222   7.703   0.011  0.8772 -0.2839 -0.3329
 2009TIP3    H132138   3.145   7.751  -0.020  1.2607 -0.4135 -1.5093
 2009TIP3    H232139   3.223   7.719   0.106 -0.0499  0.5021 -0.4397
 2010TIP3   OH232140   2.660   0.372   1.145 -0.5440  0.3509 -0.4246
 2010TIP3    H132141   2.619   0.405   1.225 -2.8517 -0.7927 -1.0655
 2010TIP3    H232142   2.673   0.449   1.091  2.3418  1.3884  1.4640
 2011TIP3   OH232143   4.692   1.405   6.688 -0.0180 -0.0952 -0.7130
 2011TIP3    H132144   4.718   1.319   6.657  1.5909  0.1503 -0.1568
 2011TIP3    H232145   4.635   1.388   6.762  1.1940 -0.7173  0.1127
 2012TIP3   OH232146   7.421   6.677   1.726  0.4757  0.2172  0.1049
 2012TIP3    H132147   7.388   6.588   1.739 -0.5439  0.7316  1.3644
 2012TIP3    H232148   7.516   6.669   1.736  0.4239 -0.7762 -0.1055
 2013TIP3   OH232149   1.303   2.145   5.878  0.0413 -0.4855  0.4793
 2013TIP3    H132150   1.324   2.143   5.784 -1.1093  0.7685  0.1552
 2013TIP3    H232151   1.213   2.114   5.883  0.3367 -1.2331  1.2664
 2014TIP3   OH232152   0.859   6.725   6.003 -0.0797  0.3596  0.5312
 2014TIP3    H132153   0.830   6.669   5.931 -0.2566  0.2219  0.7060
 2014TIP3    H232154   0.949   6.749   5.981  0.7919 -1.7816  1.5022
 2015TIP3   OH232155   7.500   7.247   0.493  0.0514 -0.1712 -0.0042
 2015TIP3    H132156   7.554   7.271   0.568  2.5243  0.9375 -1.9676
 2015TIP3    H232157   7.520   7.314   0.427 -2.2883 -0.8671 -1.5371
 2016TIP3   OH232158   6.590   6.609   1.237 -0.4977  0.0383 -0.2188
 2016TIP3    H132159   6.639   6.527   1.250  0.4663  0.9704  2.8806
 2016TIP3    H232160   6.586   6.619   1.142  2.1935 -1.9572 -0.6685
 2017TIP3   OH232161   6.968   1.069   1.027  0.0461  0.4315  0.4653
 2017TIP3    H132162   7.042   1.129   1.014  2.3908 -2.4061 -0.4022
 2017TIP3    H232163   6.950   1.075   1.121  1.9053  0.6707  0.8491
 2018TIP3   OH232164   4.621   2.128   7.795 -0.0173  0.0603 -0.1800
 2018TIP3    H132165   4.653   2.200   7.741  1.4410  0.5072  1.1828
 2018TIP3    H232166   4.694   2.067   7.801  0.8853  1.2304  3.2357
 2019TIP3   OH232167   2.896   5.389   0.975 -0.2356 -0.1165  0.0770
 2019TIP3    H132168   2.834   5.382   0.902 -2.1368  2.4573  1.3010
 2019TIP3    H232169   2.968   5.442   0.939  0.8385 -2.2103 -1.0278
 2020TIP3   OH232170   1.294   3.322   7.181 -0.0225 -0.6235 -0.1503
 2020TIP3    H132171   1.254   3.386   7.240 -0.1146 -2.9073  2.4439
 2020TIP3    H232172   1.388   3.331   7.197 -0.0384 -1.1266  0.2565
 2021TIP3   OH232173   3.796   4.615   6.595  0.1324  0.2009 -0.0427
 2021TIP3    H132174   3.771   4.586   6.683 -2.8925  0.5857 -0.6459
 2021TIP3    H232175   3.825   4.536   6.550  1.2158 -0.0816  1.1164
 2022TIP3   OH232176   5.365   7.309   7.474 -0.6269  0.0217 -0.0476
 2022TIP3    H132177   5.424   7.271   7.409  0.1491 -0.4314  0.8877
 2022TIP3    H232178   5.424   7.341   7.543 -1.2992  2.2651 -0.4476
 2023TIP3   OH232179   2.976   4.551   1.313  0.3747  0.0059 -0.2673
 2023TIP3    H132180   2.983   4.578   1.405  2.1274  0.2048 -0.4394
 2023TIP3    H232181   2.994   4.631   1.263  0.4084 -0.3242 -0.7852
 2024TIP3   OH232182   7.174   7.264   7.361 -0.2679  0.4909 -0.1608
 2024TIP3    H132183   7.177   7.357   7.380  2.4992  0.2757  1.0814
 2024TIP3    H232184   7.261   7.244   7.325 -0.6162 -1.6652  0.0170
 2025TIP3   OH232185   2.432   3.894   5.997 -0.4855  0.1319 -0.5055
 2025TIP3    H132186   2.486   3.957   5.950 -1.1370  1.1092  0.0003
 2025TIP3    H232187   2.493   3.844   6.051 -0.1537  1.8509  0.7840
 2026TIP3   OH232188   6.024   1.563   0.535  0.5135 -0.3386  0.0254
 2026TIP3    H132189   6.083   1.494   0.505  1.3127 -0.3185  1.4751
 2026TIP3    H232190   5.937   1.523   0.531  0.6059 -0.4734 -1.8134
 2027TIP3   OH232191   2.627   4.742   0.059  0.0773  1.0257 -0.9252
 2027TIP3    H132192   2.558   4.746  -0.007  1.2316  0.4561 -2.2141
 2027TIP3    H232193   2.662   4.653   0.053 -0.5892  0.5277  1.3520
 2028TIP3   OH232194   5.959   0.881   1.029 -1.0186 -0.0158  0.2661
 2028TIP3    H132195   6.040   0.906   1.073  0.3141 -1.0763 -1.4671
 2028TIP3    H232196   5.915   0.822   1.091 -1.1300  1.5406  1.7372
 2029TIP3   OH232197   5.337   3.955   0.347 -0.4390 -0.4386  0.1724
 2029TIP3    H132198   5.254   3.997   0.374  1.6966  3.1400  1.9992
 2029TIP3    H232199   5.339   3.873   0.396 -1.9663  0.4534  1.8733
 2030TIP3   OH232200   6.224   2.232   7.112  0.2876 -0.7674 -0.3377
 2030TIP3    H132201   6.255   2.296   7.048 -0.8908  0.5537  0.3508
 2030TIP3    H232202   6.146   2.194   7.072 -0.8159  0.5148  0.5251
 2031TIP3   OH232203   2.191   5.716   2.319  0.9414  0.2019  0.3434
 2031TIP3    H132204   2.207   5.810   2.328 -0.2188  0.6176 -1.4665
 2031TIP3    H232205   2.096   5.707   2.333  0.2567 -0.0395 -3.4356
 2032TIP3   OH232206   1.420   4.503   6.699 -0.2940 -0.1438  0.2636
 2032TIP3    H132207   1.337   4.526   6.658  0.5240  3.6643  0.2873
 2032TIP3    H232208   1.408   4.525   6.792  0.6247  0.1618  0.3211
 2033TIP3   OH232209   0.813   2.728   1.823  0.1709  0.5049  0.2207
 2033TIP3    H132210   0.870   2.665   1.866 -0.3090 -0.3288 -0.3340
 2033TIP3    H232211   0.760   2.765   1.894 -0.1205 -0.3332  0.4527
 2034TIP3   OH232212   5.455   3.148   6.077 -0.1974 -0.4296  0.1157
 2034TIP3    H132213   5.388   3.199   6.031 -0.1430 -1.7422 -1.5256
 2034TIP3    H232214   5.407   3.092   6.137 -0.4239 -0.1564  0.1928
 2035TIP3   OH232215   6.082   3.935   6.751 -0.4694 -0.1132  0.5244
 2035TIP3    H132216   6.018   3.935   6.680 -1.3272 -0.3485  1.2710
 2035TIP3    H232217   6.165   3.916   6.709 -0.7138  1.1894 -0.6111
 2036TIP3   OH232218   7.709   7.620   5.617  0.0959  0.1456  0.5748
 2036TIP3    H132219   7.693   7.526   5.616 -0.4330  0.2280 -0.1989
 2036TIP3    H232220   7.797   7.630   5.582  0.2396 -0.0724  0.8717
 2037TIP3   OH232221   4.577   7.977   1.568  0.3834  0.3943  0.4927
 2037TIP3    H132222   4.607   8.013   1.651  1.1339  1.6126 -0.2732
 2037TIP3    H232223   4.535   8.051   1.524 -0.2625 -0.3109 -0.0950
 2038TIP3   OH232224   1.166   2.580   6.988  0.1414 -0.2841 -0.0114
 2038TIP3    H132225   1.166   2.586   7.084 -0.1887 -0.6345  0.0153
 2038TIP3    H232226   1.241   2.631   6.960  1.2208 -1.5161  0.5276
 2039TIP3   OH232227   3.669   5.343   1.819 -0.0612  0.2062  0.0263
 2039TIP3    H132228   3.763   5.358   1.820  0.1093 -0.3625 -2.0842
 2039TIP3    H232229   3.631   5.430   1.826  0.7518  0.9338 -3.0852
 2040TIP3   OH232230   6.672   2.312   2.228 -0.2135 -0.3385 -0.5242
 2040TIP3    H132231   6.754   2.344   2.191 -0.2477  0.2228 -0.1285
 2040TIP3    H232232   6.674   2.340   2.320 -1.0339  0.0559 -0.6107
 2041TIP3   OH232233   7.648   2.933   7.762 -0.0722  0.3319  0.0446
 2041TIP3    H132234   7.699   2.852   7.754 -0.6781 -0.0590  0.0144
 2041TIP3    H232235   7.573   2.919   7.705 -0.9970  0.2644  1.2250
 2042TIP3   OH232236   7.286   1.023   1.099 -0.0924 -0.4708  0.1609
 2042TIP3    H132237   7.319   1.025   1.009 -0.2894 -1.3804  0.0624
 2042TIP3    H232238   7.225   1.096   1.104  1.0822  0.5528  0.0183
 2043TIP3   OH232239   5.240   4.696   0.806 -0.4173 -0.4743  0.1551
 2043TIP3    H132240   5.235   4.752   0.729 -3.3708 -0.1960  0.4151
 2043TIP3    H232241   5.209   4.611   0.775 -1.8562 -0.3000  1.0256
 2044TIP3   OH232242   0.379   0.668   1.198 -0.2378  0.0686 -0.5205
 2044TIP3    H132243   0.312   0.708   1.143 -0.4266  2.3133  1.2147
 2044TIP3    H232244   0.336   0.656   1.283  1.1144  0.1769  0.2028
 2045TIP3   OH232245   6.949   1.139   7.820  0.0135 -0.5275 -0.0599
 2045TIP3    H132246   7.042   1.118   7.807 -0.1617 -2.4554  1.3447
 2045TIP3    H232247   6.910   1.129   7.733  0.7591 -1.8528 -0.2713
 2046TIP3   OH232248   6.102   6.369   0.628  0.3141  0.2183 -0.0355
 2046TIP3    H132249   6.033   6.432   0.652 -0.2800 -0.3466 -0.2219
 2046TIP3    H232250   6.062   6.284   0.645  0.4824 -0.1560 -1.4409
 2047TIP3   OH232251   5.134   2.798   0.398  0.3848 -0.5252  0.0088
 2047TIP3    H132252   5.224   2.818   0.372  0.0171 -0.1255 -0.9933
 2047TIP3    H232253   5.096   2.883   0.420 -0.1936 -0.5041 -1.0388
 2048TIP3   OH232254   5.733   3.416   7.774 -0.1289 -0.1844 -0.1284
 2048TIP3    H132255   5.799   3.347   7.787  0.3243  0.0469 -1.1310
 2048TIP3    H232256   5.769   3.471   7.704  0.4287  2.1899  1.8599
 2049TIP3   OH232257   5.240   5.560   6.564 -0.4434  0.4744 -0.2036
 2049TIP3    H132258   5.309   5.579   6.501  0.9570  0.7084  1.3374
 2049TIP3    H232259   5.224   5.643   6.608  0.5799 -0.2242  1.6116
 2050TIP3   OH232260   2.647   4.692   7.139 -0.0016 -0.3889 -0.2768
 2050TIP3    H132261   2.592   4.736   7.204  1.1878  0.0846  0.4304
 2050TIP3    H232262   2.657   4.756   7.069 -1.6327 -1.0495 -1.1708
 2051TIP3   OH232263   0.910   6.225   0.928  0.3463 -0.3870 -0.0920
 2051TIP3    H132264   0.958   6.206   1.008 -1.1313 -0.1275  0.8903
 2051TIP3    H232265   0.978   6.235   0.861  1.6410 -0.0955  1.2206
 2052TIP3   OH232266   1.308   4.065   7.490 -0.7492 -0.1124 -0.0551
 2052TIP3    H132267   1.219   4.090   7.512  0.0011  2.3961  0.3843
 2052TIP3    H232268   1.329   4.117   7.412  0.6341  0.0476  0.4061
 2053TIP3   OH232269   3.171   2.902   0.379  0.0417 -0.3218 -0.5703
 2053TIP3    H132270   3.260   2.937   0.380 -0.3531  0.7477  1.4957
 2053TIP3    H232271   3.181   2.811   0.409  0.2534  0.5164  2.1829
 2054TIP3   OH232272   5.133   0.982   1.074 -0.5248  0.2253 -0.9382
 2054TIP3    H132273   5.218   0.952   1.041 -0.6532 -0.5734 -0.5538
 2054TIP3    H232274   5.070   0.944   1.013 -0.8088 -1.7455  0.4841
 2055TIP3   OH232275   2.443   4.350   1.399 -0.2054 -0.3529  0.3019
 2055TIP3    H132276   2.436   4.443   1.377 -1.4568 -0.1103  1.5932
 2055TIP3    H232277   2.484   4.348   1.485  0.2581 -1.0269  0.0725
 2056TIP3   OH232278   4.188   5.730   1.437  0.0228 -0.1015  0.7564
 2056TIP3    H132279   4.232   5.814   1.422  0.4454  0.4526  4.2182
 2056TIP3    H232280   4.116   5.751   1.496  0.3553 -2.1851  2.0103
 2057TIP3   OH232281   8.049   5.481   0.809  0.4050 -0.2582 -0.3188
 2057TIP3    H132282   8.041   5.401   0.756  0.5687  0.9325 -2.2201
 2057TIP3    H232283   8.143   5.488   0.826  0.2193 -1.4140  1.4613
 2058TIP3   OH232284   0.481   4.758   0.932 -0.4711  0.1189  0.1781
 2058TIP3    H132285   0.464   4.783   1.023  0.6398  0.1136  0.4079
 2058TIP3    H232286   0.439   4.826   0.879  0.4956  1.1976  0.7445
 2059TIP3   OH232287   0.953   6.858   0.471  0.1690  0.2296  0.0510
 2059TIP3    H132288   1.003   6.779   0.495 -0.5279 -0.0167  0.7282
 2059TIP3    H232289   0.915   6.837   0.386  2.5531  1.0599 -1.3018
 2060TIP3   OH232290   3.659   5.769   1.532 -0.1751  0.2996 -0.2987
 2060TIP3    H132291   3.713   5.730   1.601 -0.5173  0.3521  0.0012
 2060TIP3    H232292   3.704   5.747   1.450  0.4863  0.6356 -0.0326
 2061TIP3   OH232293   8.069   5.547   7.602  0.5087 -0.0702 -0.4266
 2061TIP3    H132294   8.041   5.631   7.637  0.2165 -0.5021  0.4039
 2061TIP3    H232295   8.163   5.556   7.588  0.4181  0.5036 -0.6845
 2062TIP3   OH232296   4.521   0.279   0.392 -0.0220  0.8375 -0.5063
 2062TIP3    H132297   4.495   0.329   0.315 -0.6185  0.2874 -0.6675
 2062TIP3    H232298   4.461   0.205   0.395 -1.2538  1.8234  1.5428
 2063TIP3   OH232299   5.983   0.907   1.536 -0.1793  0.1110  0.2105
 2063TIP3    H132300   5.917   0.907   1.467 -0.6023 -0.7818  0.5968
 2063TIP3    H232301   5.961   0.832   1.590  0.9373  0.0245  0.5703
 2064TIP3   OH232302   4.199   3.120   7.726  0.7976 -0.1078  0.4445
 2064TIP3    H132303   4.187   3.195   7.667 -0.8538  0.0767  0.9740
 2064TIP3    H232304   4.277   3.142   7.777  2.1776 -0.1840 -1.4846
 2065TIP3   OH232305   1.078   7.895   6.912  0.1283 -0.4644  0.1542
 2065TIP3    H132306   1.171   7.888   6.893  0.1064 -1.5282  0.4331
 2065TIP3    H232307   1.067   7.859   6.999 -0.4951  0.0072  0.2838
 2066TIP3   OH232308   7.630   6.072   6.499  0.6848 -0.0194  0.4389
 2066TIP3    H132309   7.671   6.145   6.453 -2.3638  0.5815 -1.6452
 2066TIP3    H232310   7.654   5.994   6.448 -1.7441  0.5131 -1.7472
 2067TIP3   OH232311   1.813   3.923   6.271 -0.2476  0.3376 -0.3414
 2067TIP3    H132312   1.862   3.949   6.193 -0.0152 -0.3174 -0.4231
 2067TIP3    H232313   1.864   3.957   6.344 -0.8186  1.5477 -0.4777
 2068TIP3   OH232314   6.422   1.060   6.675  0.0940 -0.0801  0.4111
 2068TIP3    H132315   6.412   1.156   6.676  0.7228  0.0263 -1.1310
 2068TIP3    H232316   6.404   1.035   6.584  1.2238 -1.2791  0.4904
 2069TIP3   OH232317   4.351   6.037   6.880 -0.1557  0.0491  0.1673
 2069TIP3    H132318   4.328   6.105   6.817  0.4955  0.7059  0.6311
 2069TIP3    H232319   4.359   6.082   6.964  1.5245 -0.3701  0.2607
 2070TIP3   OH232320   6.700   4.727   0.201 -0.4371 -0.0719 -0.1290
 2070TIP3    H132321   6.760   4.727   0.275 -1.1879  0.1754  0.4924
 2070TIP3    H232322   6.643   4.652   0.217 -1.4756  0.7885  0.2825
 2071TIP3   OH232323   7.022   7.076   7.547  0.1062  0.4529  0.0512
 2071TIP3    H132324   7.026   7.165   7.513 -0.6655  0.2564 -0.5701
 2071TIP3    H232325   7.100   7.033   7.510  0.4161  0.8273  0.2600
 2072TIP3   OH232326   7.046   6.685   1.653 -0.0243 -0.1383  0.1130
 2072TIP3    H132327   7.093   6.753   1.605  1.2291 -1.0292  0.0282
 2072TIP3    H232328   7.015   6.625   1.585 -1.6621  0.6280  0.1353
 2073TIP3   OH232329   5.156   4.566   6.019  0.0272  0.0794 -0.1291
 2073TIP3    H132330   5.218   4.596   5.953  0.3250 -0.7749 -0.2521
 2073TIP3    H232331   5.172   4.472   6.026  1.1463  0.3939  2.3442
 2074TIP3   OH232332   7.163   0.169   7.388 -0.6872 -0.1982  0.1950
 2074TIP3    H132333   7.226   0.098   7.376 -0.1506  0.3501 -0.2749
 2074TIP3    H232334   7.158   0.181   7.483  0.7889  0.5138  0.1996
 2075TIP3   OH232335   7.620   0.447   0.897  0.2531 -0.4080 -0.3976
 2075TIP3    H132336   7.638   0.500   0.819 -0.1546 -0.6026 -0.6229
 2075TIP3    H232337   7.534   0.409   0.882 -0.5681  0.8634  0.8742
 2076TIP3   OH232338   7.726   7.572   0.918 -0.7714  0.2706 -0.1650
 2076TIP3    H132339   7.688   7.563   1.005  0.1093 -1.6386  0.0654
 2076TIP3    H232340   7.819   7.590   0.934 -0.6623  0.1919 -0.6974
 2077TIP3   OH232341   0.364   6.840   0.909 -0.4359 -0.0738  0.4211
 2077TIP3    H132342   0.286   6.865   0.957  0.6198  0.0741  2.1511
 2077TIP3    H232343   0.374   6.907   0.842  0.4599  2.3644  2.8120
 2078TIP3   OH232344   4.553   3.056   2.041  0.0179  0.1730  0.1221
 2078TIP3    H132345   4.644   3.083   2.035  0.4864 -1.3236  0.2023
 2078TIP3    H232346   4.511   3.125   2.093  1.1193  0.8098  0.1952
 2079TIP3   OH232347   0.373   1.087   7.595  0.1878  0.2675 -1.2687
 2079TIP3    H132348   0.347   1.050   7.680 -0.0467  0.0415 -1.4375
 2079TIP3    H232349   0.427   1.019   7.555 -1.5506 -0.5958 -2.2736
 2080TIP3   OH232350   0.569   6.035   0.267  0.1503 -0.1590  0.1439
 2080TIP3    H132351   0.579   6.047   0.172  1.2794 -1.6412  0.0462
 2080TIP3    H232352   0.654   6.060   0.303 -0.2754  0.3886  0.7715
 2081TIP3   OH232353   3.394   6.973   1.218  1.1997  0.0638 -0.9780
 2081TIP3    H132354   3.455   7.027   1.168  1.4113  0.0120 -0.7742
 2081TIP3    H232355   3.414   6.991   1.310  1.6275 -0.7593 -0.9048
 2082TIP3   OH232356   7.551   5.583   1.696  0.3307  0.5513 -0.1383
 2082TIP3    H132357   7.566   5.664   1.745  1.6835  0.2221  0.0260
 2082TIP3    H232358   7.597   5.596   1.614 -0.6690  0.5048 -0.7193
 2083TIP3   OH232359   2.146   0.026   0.822 -0.3148  0.4040  0.2295
 2083TIP3    H132360   2.233   0.048   0.855 -0.2682  1.6600 -0.6521
 2083TIP3    H232361   2.103   0.111   0.809 -0.9381 -0.1018 -1.2354
 2084TIP3   OH232362   6.172   4.743   0.089  0.2840  0.2951 -0.0577
 2084TIP3    H132363   6.222   4.733   0.170  1.4380  1.5762 -0.5822
 2084TIP3    H232364   6.224   4.803   0.036 -0.9184  0.2121 -1.3791
 2085TIP3   OH232365   6.142   0.984   5.696 -0.0287  0.1577  0.0708
 2085TIP3    H132366   6.214   0.924   5.676 -0.6203 -1.1584  1.6247
 2085TIP3    H232367   6.083   0.976   5.621 -0.7428 -2.3135  0.7986
 2086TIP3   OH232368   2.302   0.810   6.262  0.1712 -0.4159 -0.5752
 2086TIP3    H132369   2.364   0.769   6.323  0.6386  1.2503  0.1338
 2086TIP3    H232370   2.294   0.747   6.190  0.4131 -1.9736  0.6982
 2087TIP3   OH232371   3.266   4.732   6.833 -0.3711  0.3563 -0.2266
 2087TIP3    H132372   3.240   4.683   6.911 -1.7158  0.3729 -0.6339
 2087TIP3    H232373   3.322   4.803   6.866 -1.6970  0.9453  0.8577
 2088TIP3   OH232374   5.923   0.388   6.738  0.2709 -0.0360  0.2046
 2088TIP3    H132375   6.018   0.400   6.730  0.2998  0.1252  0.7581
 2088TIP3    H232376   5.891   0.472   6.772 -0.2669  0.4239 -1.3512
 2089TIP3   OH232377   7.655   3.184   1.557  0.4879  0.0323  0.7731
 2089TIP3    H132378   7.686   3.179   1.647  0.4624  1.3415  0.8693
 2089TIP3    H232379   7.560   3.176   1.564  0.5288 -0.4877  0.7946
 2090TIP3   OH232380   1.060   4.076   6.141 -0.1293 -0.1625  0.3719
 2090TIP3    H132381   1.149   4.091   6.174  0.0471  0.3554 -0.3040
 2090TIP3    H232382   1.072   4.061   6.047 -0.7036 -0.7211  0.3811
 2091TIP3   OH232383   2.978   3.040   7.234 -0.7496 -0.1910  0.6364
 2091TIP3    H132384   3.002   2.998   7.316  1.0655  1.2225  0.9070
 2091TIP3    H232385   3.021   2.988   7.166  1.0203  0.7891  0.9274
 2092TIP3   OH232386   2.636   0.466   0.463  0.6755  0.2800 -0.3859
 2092TIP3    H132387   2.697   0.393   0.457  3.1817  2.2609 -0.6964
 2092TIP3    H232388   2.574   0.441   0.531  1.9385 -1.7730  0.0770
 2093TIP3   OH232389   1.983   1.005   0.667 -0.7924  0.1292 -0.5709
 2093TIP3    H132390   2.045   1.013   0.594 -1.0001  1.4757 -0.6225
 2093TIP3    H232391   1.897   1.019   0.627 -1.0286 -0.5193 -0.2926
 2094TIP3   OH232392   3.427   0.266   6.769 -0.5544  0.5730  0.0349
 2094TIP3    H132393   3.372   0.342   6.789  1.0072  1.4143  1.3948
 2094TIP3    H232394   3.496   0.301   6.712 -0.8618 -0.2611 -0.8793
 2095TIP3   OH232395   3.663   4.407   2.357 -0.7590 -0.2814  0.3325
 2095TIP3    H132396   3.581   4.358   2.355 -1.4209  0.7918  0.2732
 2095TIP3    H232397   3.688   4.415   2.265  0.2078 -1.8596  0.4269
 2096TIP3   OH232398   7.480   1.604   2.145 -0.1492  0.5136 -0.0954
 2096TIP3    H132399   7.460   1.530   2.202 -1.1531  0.1889 -0.8440
 2096TIP3    H232400   7.531   1.566   2.073 -1.3521  0.3611 -0.9064
 2097TIP3   OH232401   2.466   6.216   7.114  0.1020 -0.1172  0.5402
 2097TIP3    H132402   2.546   6.241   7.068  2.0024 -1.4450  2.9519
 2097TIP3    H232403   2.449   6.126   7.085 -1.6023  0.7019 -1.2635
 2098TIP3   OH232404   1.649   4.092   7.197  0.2688 -0.1165 -0.0660
 2098TIP3    H132405   1.684   4.033   7.264 -0.7038 -0.4987  0.1096
 2098TIP3    H232406   1.584   4.039   7.150 -1.1965  1.0433  0.6050
 2099TIP3   OH232407   0.907   1.792   6.906  0.3325 -0.3181 -0.2688
 2099TIP3    H132408   0.931   1.805   6.998  1.0754 -1.1374 -0.3212
 2099TIP3    H232409   0.825   1.744   6.910  0.0377  0.1992 -0.0409
 2100TIP3   OH232410   2.625   4.884   7.740  0.0250  0.0287  0.0270
 2100TIP3    H132411   2.699   4.900   7.681  0.5166  0.2640  0.6931
 2100TIP3    H232412   2.654   4.918   7.824 -0.2144 -1.3373  0.6955
 2101TIP3   OH232413   6.495   5.918   1.247 -0.5961 -0.1158 -0.1693
 2101TIP3    H132414   6.418   5.920   1.303 -1.3898  0.2849 -1.2469
 2101TIP3    H232415   6.535   5.832   1.264 -1.4393 -0.4495  0.1802
 2102TIP3   OH232416   7.818   7.360   1.183  0.4389 -0.1962  0.0568
 2102TIP3    H132417   7.888   7.333   1.242  0.3730  1.6087  1.0232
 2102TIP3    H232418   7.738   7.347   1.234  0.2009 -0.5417 -0.3967
 2103TIP3   OH232419   0.012   3.717   0.037 -0.2933  0.2073  0.1490
 2103TIP3    H132420   0.088   3.743   0.088 -0.3393  0.6289  0.0023
 2103TIP3    H232421  -0.040   3.663   0.096  0.6759 -1.0323 -0.0945
 2104TIP3   OH232422   2.381   2.790   5.675 -0.2740  0.5369  0.0317
 2104TIP3    H132423   2.400   2.868   5.623  1.0623 -0.8146 -1.6262
 2104TIP3    H232424   2.334   2.732   5.615  0.3772 -0.6473  0.6310
 2105TIP3   OH232425   4.045   8.038   0.295 -0.2552  0.1793  0.2275
 2105TIP3    H132426   4.048   8.110   0.358  0.9158  0.8112 -0.5069
 2105TIP3    H232427   4.135   8.006   0.291 -0.5163 -0.5102 -0.3891
 2106TIP3   OH232428   6.377   4.910   0.802  0.0464 -0.1897  0.0244
 2106TIP3    H132429   6.434   4.861   0.743 -0.7058 -1.0824  0.0173
 2106TIP3    H232430   6.337   4.843   0.857 -1.2699  0.3866 -0.2123
 2107TIP3   OH232431   1.664   6.666   1.240 -0.4238  0.3950 -0.5366
 2107TIP3    H132432   1.578   6.626   1.253  0.0274 -0.3865  0.1711
 2107TIP3    H232433   1.707   6.658   1.325 -0.1813  2.1185 -0.4551
 2108TIP3   OH232434   2.336   6.356   5.630 -0.0530  0.0504 -0.0308
 2108TIP3    H132435   2.260   6.414   5.641  0.0607 -0.0831  1.7427
 2108TIP3    H232436   2.328   6.293   5.702  0.6541 -1.2224 -1.0258
 2109TIP3   OH232437   7.971   2.794   7.002 -0.5247 -0.4626  0.0592
 2109TIP3    H132438   7.927   2.877   6.987  1.5927  0.9915  1.4338
 2109TIP3    H232439   7.938   2.764   7.087 -2.0335 -1.5975 -0.8805
 2110TIP3   OH232440   4.192   6.181   7.106  0.3793  0.4859 -0.2534
 2110TIP3    H132441   4.128   6.201   7.038 -0.7035  0.1086  0.6259
 2110TIP3    H232442   4.154   6.215   7.186  1.8522  1.3358  0.1169
 2111TIP3   OH232443   6.985   5.444   1.169  0.5156  0.1119  0.3178
 2111TIP3    H132444   6.937   5.527   1.177  0.6196  0.2390 -0.3122
 2111TIP3    H232445   7.071   5.469   1.134  0.6645 -0.2251  0.4385
 2112TIP3   OH232446   0.490   7.769   0.947 -0.3422  0.2252 -0.0407
 2112TIP3    H132447   0.530   7.767   1.034 -3.1683 -0.1296  1.3615
 2112TIP3    H232448   0.511   7.684   0.909  1.2962  0.5518  0.0686
 2113TIP3   OH232449   3.248   3.455   0.663 -0.1733 -0.4305 -0.0545
 2113TIP3    H132450   3.292   3.372   0.642 -0.2502 -0.4162 -0.2742
 2113TIP3    H232451   3.182   3.465   0.594 -1.3024 -1.0274  0.9088
 2114TIP3   OH232452   7.462   7.305   1.587  0.1051  0.0424  0.8565
 2114TIP3    H132453   7.426   7.367   1.523 -0.8533 -0.6989  0.6564
 2114TIP3    H232454   7.431   7.337   1.672  1.5246  1.1298  1.0102
 2115TIP3   OH232455   7.452   0.032   6.165  0.5731  0.2915  0.1693
 2115TIP3    H132456   7.416  -0.044   6.119 -1.0376  0.1505  1.5703
 2115TIP3    H232457   7.488   0.087   6.095 -0.0224 -0.8216 -1.0560
 2116TIP3   OH232458   0.463   0.271   1.065 -0.5830  0.4546  0.2562
 2116TIP3    H132459   0.501   0.359   1.063 -0.8763  0.5873 -1.2762
 2116TIP3    H232460   0.380   0.282   1.111 -0.1815  0.7691  0.9260
 2117TIP3   OH232461   1.893   1.949   0.421 -0.8656 -0.1562  0.2216
 2117TIP3    H132462   1.844   2.014   0.472  0.2409  0.9374 -0.0556
 2117TIP3    H232463   1.875   1.972   0.330  0.6535  0.7088  0.0986
 2118TIP3   OH232464   5.234   7.432   6.517 -0.0430  0.5624  0.2763
 2118TIP3    H132465   5.285   7.505   6.481 -0.0008  0.4079  0.0186
 2118TIP3    H232466   5.287   7.355   6.498 -0.2202  0.4351  0.2978
 2119TIP3   OH232467   3.799   5.832   0.570  0.2251 -0.5369 -0.1982
 2119TIP3    H132468   3.818   5.919   0.534  0.1049  0.1915  1.3876
 2119TIP3    H232469   3.741   5.792   0.506  0.2613  0.5581 -0.9556
 2120TIP3   OH232470   3.850   7.083   7.208 -0.6288  0.0128  0.5815
 2120TIP3    H132471   3.776   7.085   7.148  0.2353 -1.3043 -0.6125
 2120TIP3    H232472   3.923   7.050   7.155  1.6278  3.9150  0.8872
 2121TIP3   OH232473   4.542   4.366   7.607 -0.0209  0.1810 -0.2765
 2121TIP3    H132474   4.571   4.321   7.686  0.7036  0.6382 -0.2730
 2121TIP3    H232475   4.584   4.452   7.612 -0.4134  0.4112 -0.8840
 2122TIP3   OH232476   5.139   0.645   0.331  0.3852  0.2484  0.5171
 2122TIP3    H132477   5.101   0.619   0.247 -0.6372  1.9964  0.3963
 2122TIP3    H232478   5.208   0.580   0.347 -0.8822 -1.4466 -0.5514
 2123TIP3   OH232479   4.932   0.229   6.445  0.0494  0.4039  0.3453
 2123TIP3    H132480   4.965   0.169   6.512  1.0201 -1.4353 -1.6611
 2123TIP3    H232481   5.010   0.273   6.411 -0.2443  0.2956 -0.5013
 2124TIP3   OH232482   5.774   5.906   0.349 -0.4312 -0.0391  0.2380
 2124TIP3    H132483   5.819   5.976   0.397  2.2216 -1.0913 -0.5671
 2124TIP3    H232484   5.784   5.829   0.404 -1.7904 -0.2197  0.2788
 2125TIP3   OH232485   0.376   2.873   6.915  0.2809  0.3194 -0.2479
 2125TIP3    H132486   0.286   2.904   6.923  0.5064  0.8039  0.4889
 2125TIP3    H232487   0.406   2.863   7.006  1.2142  0.8997 -0.4823
 2126TIP3   OH232488   2.995   7.307   0.955  0.5927  0.0251  0.4358
 2126TIP3    H132489   3.030   7.283   1.041  1.3807  0.7087  0.3166
 2126TIP3    H232490   3.068   7.293   0.894  0.0875 -0.3090 -0.1054
 2127TIP3   OH232491   7.677   8.089   1.604  0.0431 -0.1204 -0.4150
 2127TIP3    H132492   7.613   8.100   1.675  0.9113  0.8090  0.2544
 2127TIP3    H232493   7.758   8.125   1.639  0.9310 -1.1944 -1.2816
 2128TIP3   OH232494   6.944   5.582   6.751  0.0715  0.6062 -0.1957
 2128TIP3    H132495   6.857   5.622   6.757 -0.8337 -1.2953  0.1761
 2128TIP3    H232496   6.980   5.615   6.668 -1.3405  0.8327 -0.7505
 2129TIP3   OH232497   6.245   7.916   6.952 -0.3845  0.2239 -0.1497
 2129TIP3    H132498   6.285   7.918   7.039  1.7465  3.6956 -0.9777
 2129TIP3    H232499   6.158   7.956   6.965 -0.9112 -1.1061  0.6194
 2130TIP3   OH232500   5.584   7.874   6.171 -0.0057  0.1394 -0.5201
 2130TIP3    H132501   5.621   7.922   6.097 -1.2970  1.0596 -0.6151
 2130TIP3    H232502   5.645   7.888   6.243  0.3775  0.7057 -0.9495
 2131TIP3   OH232503   4.895   1.538   6.871  0.7660 -0.2365 -0.4534
 2131TIP3    H132504   4.972   1.558   6.925  0.1675 -0.6044  0.5670
 2131TIP3    H232505   4.828   1.599   6.902  0.8069  0.4943 -1.7541
 2132TIP3   OH232506   2.784   7.541   1.269  0.0773 -0.5181  0.3156
 2132TIP3    H132507   2.755   7.632   1.260  1.5240  0.1831  2.0341
 2132TIP3    H232508   2.706   7.489   1.252 -1.1714  1.1108  0.7492
 2133TIP3   OH232509   6.366   7.727   6.620 -0.2993  0.6256 -0.0669
 2133TIP3    H132510   6.426   7.727   6.545 -0.6518 -0.1181 -0.3569
 2133TIP3    H232511   6.322   7.642   6.616 -0.4397  0.6398  0.8911
 2134TIP3   OH232512   4.861   6.796   7.735 -0.0051 -0.2652  0.2522
 2134TIP3    H132513   4.908   6.836   7.661  0.0861 -0.9790 -0.0795
 2134TIP3    H232514   4.803   6.865   7.766 -1.5853 -0.5809 -1.8142
 2135TIP3   OH232515   6.356   1.065   1.325  1.0565  0.0855  0.0158
 2135TIP3    H132516   6.269   1.074   1.364  0.6950 -0.4570 -0.6442
 2135TIP3    H232517   6.416   1.094   1.394  0.3404  0.8073  0.3517
 2136TIP3   OH232518   1.121   7.119   7.778 -0.0344 -0.0409  0.0613
 2136TIP3    H132519   1.034   7.156   7.789 -0.2513 -0.5589  0.1409
 2136TIP3    H232520   1.105   7.033   7.738  0.3583 -0.6063  1.0799
 2137TIP3   OH232521   3.371   6.743   2.055  0.4573 -0.2434  0.0516
 2137TIP3    H132522   3.317   6.726   1.978  1.3879 -1.3760 -0.3944
 2137TIP3    H232523   3.323   6.809   2.105  0.8846  2.2406 -2.5961
 2138TIP3   OH232524   3.895   3.919   7.046  0.1225  0.1558 -0.0340
 2138TIP3    H132525   3.956   3.879   6.984 -1.5711  3.0207 -3.9504
 2138TIP3    H232526   3.929   4.008   7.058 -1.0811  0.5003  1.0245
 2139TIP3   OH232527   7.451   6.570   0.209 -0.5114 -0.1988 -0.5174
 2139TIP3    H132528   7.537   6.556   0.169 -0.9988 -0.1760 -1.6009
 2139TIP3    H232529   7.423   6.484   0.239 -0.2475 -0.2592 -0.4480
 2140TIP3   OH232530   0.034   4.378   6.615 -0.0532  0.0559 -0.1917
 2140TIP3    H132531   0.043   4.291   6.653 -0.4815 -0.1190 -0.4881
 2140TIP3    H232532   0.069   4.437   6.682  1.3106 -0.4232 -0.4498
 2141TIP3   OH232533   0.999   2.749   6.470 -0.0886 -0.0802 -0.3040
 2141TIP3    H132534   0.927   2.694   6.438 -0.6015  0.3050  0.1710
 2141TIP3    H232535   0.987   2.833   6.426 -0.8003  0.4540  0.8622
 2142TIP3   OH232536   5.237   2.122   1.512 -0.3438 -0.5023 -0.1731
 2142TIP3    H132537   5.324   2.125   1.471  0.1299 -0.9696  0.7869
 2142TIP3    H232538   5.207   2.032   1.498  0.3987 -1.0719  1.6422
 2143TIP3   OH232539   5.720   6.272   1.004 -0.2340 -0.6937  0.0826
 2143TIP3    H132540   5.696   6.187   1.040 -0.9297  0.3478  2.2666
 2143TIP3    H232541   5.713   6.332   1.078  1.6292  1.0432 -1.0435
 2144TIP3   OH232542   5.279   3.863   1.148 -0.3077 -0.5262 -0.7663
 2144TIP3    H132543   5.347   3.824   1.093 -1.4622 -0.9824 -1.9202
 2144TIP3    H232544   5.290   3.958   1.135  0.4541 -0.5715 -0.4951
 2145TIP3   OH232545   0.074   7.633   6.602  0.4674 -0.4691 -0.2237
 2145TIP3    H132546   0.020   7.702   6.642 -0.5692 -0.9868 -0.6941
 2145TIP3    H232547   0.154   7.679   6.575  0.8772  0.0584  1.6711
 2146TIP3   OH232548   4.548   5.000   6.778 -0.2082  0.0031  0.1137
 2146TIP3    H132549   4.585   4.927   6.828  0.6947 -0.1159 -0.6969
 2146TIP3    H232550   4.526   5.065   6.844 -0.9896 -0.9751  0.8486
 2147TIP3   OH232551   7.402   3.449   1.040 -0.5640  0.3404  0.0067
 2147TIP3    H132552   7.307   3.441   1.035 -0.5689 -1.5520  1.8804
 2147TIP3    H232553   7.434   3.398   0.965 -1.0097 -0.2917  0.2412
 2148TIP3   OH232554   5.990   5.288   7.226 -0.0229 -0.0214  0.7179
 2148TIP3    H132555   5.924   5.357   7.237 -1.9178 -1.0482 -2.6189
 2148TIP3    H232556   5.978   5.232   7.302 -0.5606  1.6371  1.9350
 2149TIP3   OH232557   2.302   5.032   7.273  0.0227 -0.1614  0.2797
 2149TIP3    H132558   2.347   5.114   7.292 -0.9122  0.3548  0.3519
 2149TIP3    H232559   2.215   5.043   7.312 -0.2301 -1.0598  0.0034
 2150TIP3   OH232560   5.015   7.545   0.151  0.1520  0.2277 -0.1766
 2150TIP3    H132561   5.057   7.573   0.233  0.9210 -0.8990 -0.1667
 2150TIP3    H232562   4.953   7.477   0.177  1.0741 -0.8128 -0.6044
 2151TIP3   OH232563   0.368   7.092   7.128 -0.0441  0.4021  0.3711
 2151TIP3    H132564   0.440   7.040   7.092 -1.2782 -3.1466  2.5283
 2151TIP3    H232565   0.293   7.033   7.128 -2.2944  3.0581  0.7471
 2152TIP3   OH232566   6.592   5.745   1.871  0.9509 -0.3521 -0.2799
 2152TIP3    H132567   6.572   5.721   1.962 -0.3073  1.7260  0.0719
 2152TIP3    H232568   6.546   5.680   1.818 -0.4011 -0.1472  0.5986
 2153TIP3   OH232569   6.081   7.347   1.723 -0.4868 -0.5378 -0.2733
 2153TIP3    H132570   6.024   7.365   1.649 -0.7220 -0.0245  0.0257
 2153TIP3    H232571   6.140   7.422   1.727 -1.8923  0.5313  1.3816
 2154TIP3   OH232572   7.437   2.139   5.464 -0.3921  0.4754 -0.5256
 2154TIP3    H132573   7.510   2.078   5.473  0.1412  1.3596  1.9699
 2154TIP3    H232574   7.470   2.208   5.407  0.7166  0.7792  0.4397
 2155TIP3   OH232575   6.894   1.821   0.196 -0.2420 -0.1808  0.3736
 2155TIP3    H132576   6.844   1.857   0.123  0.3911 -3.1037 -1.6717
 2155TIP3    H232577   6.892   1.890   0.262 -2.4917  1.8667 -1.6159
 2156TIP3   OH232578   5.485   1.014   6.474 -0.4069  0.5280  0.1483
 2156TIP3    H132579   5.542   0.957   6.422 -1.7646 -0.2715 -0.5046
 2156TIP3    H232580   5.532   1.025   6.557  0.5226 -0.4025 -0.2305
 2157TIP3   OH232581   0.424   3.098   0.104 -0.3628 -0.3886  0.8232
 2157TIP3    H132582   0.488   3.169   0.096  1.7121 -2.2544 -0.2409
 2157TIP3    H232583   0.357   3.133   0.163  0.0538  2.7540 -0.3190
 2158TIP3   OH232584   5.316   4.631   7.927 -0.4076 -0.0006 -0.8501
 2158TIP3    H132585   5.324   4.725   7.907 -0.7791  0.3512  0.5734
 2158TIP3    H232586   5.226   4.609   7.904 -0.6214  0.2385 -0.2671
 2159TIP3   OH232587   0.736   5.945   2.068 -0.3256 -0.0177  0.0740
 2159TIP3    H132588   0.826   5.936   2.099 -0.3336 -0.6768 -0.0757
 2159TIP3    H232589   0.683   5.954   2.147 -0.3341 -1.5618  0.2725
 2160TIP3   OH232590   1.256   1.378   1.616 -0.0633  0.3478 -0.6495
 2160TIP3    H132591   1.308   1.302   1.643  0.1640  0.9973  0.8351
 2160TIP3    H232592   1.169   1.361   1.652 -0.9978 -0.7910 -3.2218
 2161TIP3   OH232593   4.129   7.811   7.125  0.2653 -0.2156  0.3261
 2161TIP3    H132594   4.113   7.897   7.163  0.3815 -1.2439  2.9238
 2161TIP3    H232595   4.149   7.755   7.200  1.6116 -2.2154 -1.3934
 2162TIP3   OH232596   4.906   1.120   6.244  0.2677  0.4118 -0.2448
 2162TIP3    H132597   4.892   1.213   6.260  3.5938  1.1641 -1.0543
 2162TIP3    H232598   4.935   1.115   6.153 -1.7009 -1.7378 -0.8727
 2163TIP3   OH232599   4.641   2.061   7.078  0.2730  0.2107  0.4081
 2163TIP3    H132600   4.580   2.132   7.061  1.5372  0.7075 -2.7156
 2163TIP3    H232601   4.721   2.104   7.108  1.3827  0.3515 -2.4605
 2164TIP3   OH232602   0.465   2.635   2.506  0.1991 -0.2572 -0.2596
 2164TIP3    H132603   0.465   2.706   2.569  0.4627 -1.3703  1.0280
 2164TIP3    H232604   0.432   2.675   2.425  0.8299  1.4323  0.2777
 2165TIP3   OH232605   6.456   6.759   1.390  0.2179 -0.0523 -0.0949
 2165TIP3    H132606   6.411   6.682   1.422 -0.0016  0.4049  0.7278
 2165TIP3    H232607   6.523   6.725   1.330  0.2973 -0.8918  0.4607
 2166TIP3   OH232608   6.478   2.984   6.663 -0.2783 -0.3791 -0.3786
 2166TIP3    H132609   6.511   2.987   6.753  0.8407 -1.4622 -0.7129
 2166TIP3    H232610   6.534   3.046   6.616 -0.6302 -0.0746 -0.3956
 2167TIP3   OH232611   2.183   4.109   1.420  0.2796  0.0364 -0.4311
 2167TIP3    H132612   2.135   4.059   1.354 -1.2327 -0.8244  1.2263
 2167TIP3    H232613   2.274   4.103   1.393  0.1761 -3.5120 -0.4661
 2168TIP3   OH232614   8.067   6.290   6.803 -0.7470  0.4560  0.0624
 2168TIP3    H132615   8.042   6.241   6.881  1.3352 -0.1591  0.3824
 2168TIP3    H232616   8.067   6.225   6.733 -1.1913  0.7079 -0.1765
 2169TIP3   OH232617   6.136   4.544   1.762  0.0836  0.4571  0.3268
 2169TIP3    H132618   6.206   4.521   1.700  0.1089  0.1887  0.4502
 2169TIP3    H232619   6.062   4.570   1.707 -0.7199 -2.0935  0.0711
 2170TIP3   OH232620   4.529   3.901   7.049  0.1371 -0.0113 -0.7708
 2170TIP3    H132621   4.516   3.996   7.058 -0.1955 -0.1796  0.6794
 2170TIP3    H232622   4.623   3.889   7.062  0.0163  0.0104  0.1566
 2171TIP3   OH232623   5.332   5.980   0.136 -0.1281 -0.1154  0.1913
 2171TIP3    H132624   5.401   5.969   0.071 -0.5003  0.3999 -0.3017
 2171TIP3    H232625   5.376   5.968   0.220  0.4371 -0.3947 -0.1415
 2172TIP3   OH232626   7.033   4.877   6.814 -0.4540 -0.3813 -0.1179
 2172TIP3    H132627   7.047   4.971   6.830  0.2778 -0.2861 -1.2433
 2172TIP3    H232628   7.097   4.834   6.870 -0.0263 -0.1625 -0.4304
 2173TIP3   OH232629   3.297   7.980   0.555  0.1683  0.2271 -0.6887
 2173TIP3    H132630   3.281   8.036   0.631  0.8311  0.0458 -0.3996
 2173TIP3    H232631   3.372   8.020   0.511  0.1617 -0.0011 -0.9146
 2174TIP3   OH232632   8.090   0.084   0.370  0.3349 -0.2848  0.0280
 2174TIP3    H132633   8.020   0.060   0.431  0.3141  1.0411  0.5671
 2174TIP3    H232634   8.155   0.128   0.425 -0.5607  2.7448 -1.1210
 2175TIP3   OH232635   5.411   7.178   1.192  0.1919  0.3459 -0.3382
 2175TIP3    H132636   5.479   7.229   1.236  1.6625 -0.9300 -1.0269
 2175TIP3    H232637   5.343   7.167   1.258  0.7217  1.5195  0.4333
 2176TIP3   OH232638   4.892   0.245   7.928 -0.0975 -0.2021  0.1896
 2176TIP3    H132639   4.982   0.260   7.899  0.1137 -1.7431 -0.0294
 2176TIP3    H232640   4.839   0.257   7.849 -0.2126  1.4627  0.4710
 2177TIP3   OH232641   1.921   2.824   0.499  0.0841  0.1162  0.1041
 2177TIP3    H132642   1.921   2.741   0.546 -0.3948 -0.1939 -0.4282
 2177TIP3    H232643   2.009   2.832   0.462  0.2551  0.0450  0.4913
 2178TIP3   OH232644   6.203   1.115   7.283 -0.1339  0.0075 -0.4810
 2178TIP3    H132645   6.163   1.186   7.333  0.7775 -0.2927  0.7162
 2178TIP3    H232646   6.146   1.040   7.300 -0.0490  0.0037 -0.1980
 2179TIP3   OH232647   4.488   3.213   6.404 -0.3923 -0.2351  0.3313
 2179TIP3    H132648   4.502   3.233   6.311 -0.8529 -0.9844  0.0894
 2179TIP3    H232649   4.441   3.289   6.438  1.6024  1.0081  0.4773
 2180TIP3   OH232650   6.753   1.979   7.496  0.1249  0.4516  0.5395
 2180TIP3    H132651   6.761   1.900   7.548  0.0600  1.6227  2.4292
 2180TIP3    H232652   6.679   2.026   7.535  2.5122  3.2301  2.0561
 2181TIP3   OH232653   2.552   5.716   6.301 -0.1998  0.3558  0.0225
 2181TIP3    H132654   2.488   5.772   6.256  1.9603  1.9113 -1.3560
 2181TIP3    H232655   2.593   5.774   6.365  2.0777  0.4708 -1.4291
 2182TIP3   OH232656   0.603   3.192   7.197 -0.0256 -0.3701 -0.2456
 2182TIP3    H132657   0.507   3.188   7.189 -0.0632  0.1274 -0.1245
 2182TIP3    H232658   0.635   3.119   7.144 -0.5213 -1.4969  0.9682
 2183TIP3   OH232659   3.335   7.795   6.418 -0.1841  0.8753  0.0005
 2183TIP3    H132660   3.326   7.884   6.453 -1.4173  1.5152 -1.7801
 2183TIP3    H232661   3.420   7.795   6.375  1.2325  0.1604  2.5686
 2184TIP3   OH232662   6.391   3.183   0.092  0.2545 -0.0914  0.1561
 2184TIP3    H132663   6.432   3.152   0.173  1.7273 -0.3435 -0.6477
 2184TIP3    H232664   6.303   3.147   0.095  0.8837 -1.6960  0.7778
 2185TIP3   OH232665   3.324   7.257   1.348  0.2728 -0.3374  0.0688
 2185TIP3    H132666   3.368   7.181   1.387  1.7099  1.0384  1.2402
 2185TIP3    H232667   3.257   7.281   1.411 -0.1702 -0.6079 -0.2939
 2186TIP3   OH232668   3.739   3.683   7.511  0.5098  0.1782 -0.1531
 2186TIP3    H132669   3.814   3.710   7.565 -1.2602  2.2496  1.4961
 2186TIP3    H232670   3.742   3.742   7.436 -0.3398  1.4760  0.7744
 2187TIP3   OH232671   6.350   0.998   0.854 -0.4219  0.8805 -0.3479
 2187TIP3    H132672   6.365   1.034   0.766 -0.0069 -1.2473 -1.2048
 2187TIP3    H232673   6.401   0.917   0.856  0.1527  1.2411  2.1487
 2188TIP3   OH232674   1.094   7.546   5.333 -0.0521 -0.2164  0.0623
 2188TIP3    H132675   1.189   7.544   5.324 -0.0524 -1.1914  0.1533
 2188TIP3    H232676   1.067   7.626   5.287  0.6708 -0.7167 -1.3011
 2189TIP3   OH232677   6.336   8.093   0.593  0.4303 -0.0861 -0.4003
 2189TIP3    H132678   6.296   8.030   0.533 -0.3184  0.5985 -0.6345
 2189TIP3    H232679   6.376   8.159   0.537  0.3317  0.1873 -0.1547
 2190TIP3   OH232680   7.684   1.589   1.967  0.5333  0.3308 -0.4478
 2190TIP3    H132681   7.701   1.609   1.875 -0.9575  0.2424 -0.7593
 2190TIP3    H232682   7.729   1.506   1.982 -0.3641 -0.3654 -1.4873
 2191TIP3   OH232683   0.771   5.719   1.524  0.1100 -0.2528 -0.2905
 2191TIP3    H132684   0.850   5.664   1.516 -1.0535 -1.9639 -0.5831
 2191TIP3    H232685   0.699   5.656   1.530 -1.4030  1.2649 -1.6108
 2192TIP3   OH232686   7.164   6.007   7.661  1.0853  0.0437 -0.2910
 2192TIP3    H132687   7.252   6.044   7.648  0.9680  0.9841  1.3372
 2192TIP3    H232688   7.168   5.921   7.620  3.0167 -0.2360  0.3986
 2193TIP3   OH232689   7.148   7.869   6.972 -0.1292 -0.3656 -0.0114
 2193TIP3    H132690   7.103   7.854   7.055  1.4913  0.1251  1.0077
 2193TIP3    H232691   7.125   7.959   6.948 -2.3690 -1.1973 -1.3037
 2194TIP3   OH232692   4.260   6.786   0.708  0.0489 -0.7853  0.2210
 2194TIP3    H132693   4.186   6.840   0.680  0.2734  0.2779  1.6247
 2194TIP3    H232694   4.291   6.826   0.788  0.3982 -2.8435  1.1913
 2195TIP3   OH232695   0.502   6.871   1.353 -0.0095 -0.7444  0.7448
 2195TIP3    H132696   0.566   6.831   1.294  0.5114 -0.4848  1.1199
 2195TIP3    H232697   0.505   6.815   1.431  0.9722  0.1858  1.4087
 2196TIP3   OH232698   7.461   3.372   7.113  0.3933  0.1921  0.0178
 2196TIP3    H132699   7.489   3.281   7.118 -2.6371 -0.8972 -0.3331
 2196TIP3    H232700   7.456   3.401   7.204  0.4186 -0.3315  0.1888
 2197TIP3   OH232701   2.234   3.576   7.778  0.2573  0.5437 -0.1028
 2197TIP3    H132702   2.259   3.543   7.864  3.1120  1.5984 -0.4099
 2197TIP3    H232703   2.254   3.670   7.783 -1.6412  1.0460 -1.2381
 2198TIP3   OH232704   7.619   1.604   6.079 -0.3296  0.3020 -0.3871
 2198TIP3    H132705   7.585   1.655   6.006 -0.3783 -0.4198 -0.8772
 2198TIP3    H232706   7.548   1.545   6.103 -0.3124  0.5228  0.2438
 2199TIP3   OH232707   8.042   4.412   1.403  0.0004 -0.0199  0.5102
 2199TIP3    H132708   8.095   4.394   1.481  0.7597 -2.3539 -0.4441
 2199TIP3    H232709   7.968   4.352   1.410 -1.0408  1.2189  0.4127
 2200TIP3   OH232710   5.407   5.408   0.444 -0.4514 -0.6873 -0.0043
 2200TIP3    H132711   5.411   5.384   0.352  0.3869 -0.4969 -0.0281
 2200TIP3    H232712   5.347   5.483   0.448  1.7025  1.1831 -0.8313
 2201TIP3   OH232713   4.538   7.980   5.811 -0.8232 -0.0845  0.2935
 2201TIP3    H132714   4.455   8.018   5.840 -2.0358 -0.7914 -2.0367
 2201TIP3    H232715   4.534   7.983   5.716  0.9107 -2.1131  0.0865
 2202TIP3   OH232716   2.742   2.507   6.977 -0.3786  0.1280 -0.1251
 2202TIP3    H132717   2.754   2.413   6.990  0.8554  0.0407 -1.6266
 2202TIP3    H232718   2.830   2.544   6.987 -0.7397  1.0372 -0.2114
 2203TIP3   OH232719   7.354   5.671   7.223  0.4288 -0.2935 -0.1422
 2203TIP3    H132720   7.431   5.617   7.242 -0.5494 -0.8656  2.7233
 2203TIP3    H232721   7.383   5.732   7.155  3.3082 -0.6742  0.6220
 2204TIP3   OH232722   1.160   6.174   6.729 -0.3222 -0.2087  0.2043
 2204TIP3    H132723   1.089   6.113   6.710 -0.1942  0.0033 -0.9928
 2204TIP3    H232724   1.161   6.180   6.825 -1.5186 -0.6727  0.2592
 2205TIP3   OH232725   1.906   1.828   5.658 -0.6302  0.2161 -0.2155
 2205TIP3    H132726   1.867   1.796   5.576  0.6507 -1.7370 -0.1394
 2205TIP3    H232727   1.952   1.752   5.693  1.8823  1.9276  0.4973
 2206TIP3   OH232728   1.841   7.515   0.974  0.2435 -0.4739  0.2553
 2206TIP3    H132729   1.796   7.521   0.890 -1.0967  1.3160  1.0573
 2206TIP3    H232730   1.814   7.593   1.022  2.2354 -0.6344  1.7671
 2207TIP3   OH232731   6.544   7.268   1.610  0.5569  0.3621  0.0369
 2207TIP3    H132732   6.538   7.185   1.659 -0.9442  0.7637  0.5794
 2207TIP3    H232733   6.573   7.332   1.676 -0.0913  0.6229  0.0764
 2208TIP3   OH232734   2.485   5.089   1.237  0.1322  0.6398  0.0187
 2208TIP3    H132735   2.492   5.157   1.170  3.3889  0.6817  0.2475
 2208TIP3    H232736   2.471   5.008   1.188  1.7097  0.7820 -0.7291
 2209TIP3   OH232737   6.361   0.838   5.642 -0.1287  0.1222 -0.1725
 2209TIP3    H132738   6.394   0.807   5.557 -0.3116 -1.7108  0.4015
 2209TIP3    H232739   6.437   0.833   5.700 -0.2817  0.3395  0.0447
 2210TIP3   OH232740   3.369   3.055   1.542 -0.1312 -0.0772 -0.2003
 2210TIP3    H132741   3.317   2.991   1.590  1.5332 -0.7887  0.7551
 2210TIP3    H232742   3.417   3.103   1.610  1.7559 -0.6397 -1.0627
 2211TIP3   OH232743   0.036   0.157   5.222  0.5106 -0.0031  0.1237
 2211TIP3    H132744  -0.037   0.216   5.203  0.2155 -0.2304  0.5461
 2211TIP3    H232745  -0.001   0.069   5.215  0.9069 -0.1423 -0.3309
 2212TIP3   OH232746   7.068   1.999   6.939  0.3559  0.0178 -0.4164
 2212TIP3    H132747   7.050   2.093   6.943  1.7802  0.2693  0.6611
 2212TIP3    H232748   7.163   1.993   6.927  0.5268 -1.2900  1.2356
 2213TIP3   OH232749   2.852   5.088   6.024 -0.1296  0.5522 -0.8567
 2213TIP3    H132750   2.909   5.112   5.951 -1.0293 -0.5399 -1.9664
 2213TIP3    H232751   2.763   5.095   5.989 -0.6371  1.0284  0.4656
 2214TIP3   OH232752   5.247   0.708   1.194  0.8006 -0.3103 -0.3688
 2214TIP3    H132753   5.245   0.799   1.224  1.2843 -0.0937 -0.9652
 2214TIP3    H232754   5.312   0.708   1.124  1.0758 -1.1990 -0.1189
 2215TIP3   OH232755   4.584   3.938   2.199  0.8269  0.1511  0.2174
 2215TIP3    H132756   4.631   3.855   2.193  0.4596  0.0096 -0.8596
 2215TIP3    H232757   4.614   3.976   2.282  1.4361 -0.7792  0.4448
 2216TIP3   OH232758   4.174   0.064   1.401 -0.4110  0.4356  0.3596
 2216TIP3    H132759   4.104   0.031   1.457  0.0968 -0.8344  0.2737
 2216TIP3    H232760   4.216   0.132   1.453 -1.0589  0.4964  0.8144
 2217TIP3   OH232761   7.753   0.407   0.231  0.5055 -0.6170  0.6079
 2217TIP3    H132762   7.839   0.405   0.190  1.4968 -1.6965  2.6200
 2217TIP3    H232763   7.753   0.487   0.284 -0.6711  0.6339 -1.1660
 2218TIP3   OH232764   2.831   7.897   6.752  0.7149 -0.2639  0.0010
 2218TIP3    H132765   2.808   7.899   6.659  0.7122  1.3342  0.0196
 2218TIP3    H232766   2.750   7.918   6.798  0.8943 -0.2925  0.3377
 2219TIP3   OH232767   2.639   3.813   6.189 -0.0597  0.4860  0.0629
 2219TIP3    H132768   2.730   3.787   6.200 -0.1410 -0.5178 -1.2611
 2219TIP3    H232769   2.612   3.846   6.274  1.7760  1.6174  0.2651
 2220TIP3   OH232770   4.826   2.348   6.337  0.4924 -0.2096 -0.3611
 2220TIP3    H132771   4.862   2.357   6.249  0.3240 -0.6540 -0.4779
 2220TIP3    H232772   4.761   2.417   6.344  0.8822  0.1659 -0.3930
 2221TIP3   OH232773   5.895   7.439   2.019  0.8505  0.0956 -1.0513
 2221TIP3    H132774   5.817   7.408   1.973  0.9048 -2.8196  0.5421
 2221TIP3    H232775   5.863   7.473   2.102  1.1616  0.3810 -1.0454
 2222TIP3   OH232776   5.178   1.830   7.914  0.0010  0.2993  0.0389
 2222TIP3    H132777   5.178   1.755   7.974 -0.2389  1.2237  1.2365
 2222TIP3    H232778   5.131   1.799   7.837 -0.4023 -0.6780  0.6600
 2223TIP3   OH232779   4.337   4.798   2.127 -0.1931  0.1498  0.0648
 2223TIP3    H132780   4.373   4.713   2.100 -1.1354 -0.6616  1.3033
 2223TIP3    H232781   4.336   4.850   2.046  3.4111  0.1519 -0.1601
 2224TIP3   OH232782   5.046   2.727   7.097 -0.3696  0.2670 -0.5898
 2224TIP3    H132783   5.108   2.761   7.033 -0.7790  0.2666 -0.9885
 2224TIP3    H232784   5.079   2.758   7.182  0.6554 -0.4459 -0.7066
 2225TIP3   OH232785   3.929   4.280   2.380  0.4320  0.1348 -0.5554
 2225TIP3    H132786   3.943   4.198   2.428 -0.1654  0.2583 -0.1522
 2225TIP3    H232787   3.843   4.310   2.410  1.3324  1.7578  0.5703
 2226TIP3   OH232788   2.120   7.220   7.863 -0.3569 -0.2753 -0.6112
 2226TIP3    H132789   2.154   7.250   7.948 -0.7776  0.0005 -0.5383
 2226TIP3    H232790   2.031   7.255   7.859  0.0834  0.7621 -1.7140
 2227TIP3   OH232791   3.080   4.888   6.720  0.2873 -0.1981  0.2548
 2227TIP3    H132792   3.099   4.859   6.631 -2.0856 -1.6639  0.1412
 2227TIP3    H232793   3.153   4.855   6.772  0.5295 -1.4003 -0.8037
 2228TIP3   OH232794   2.903   4.661   7.826  0.3914 -0.2255 -0.0455
 2228TIP3    H132795   2.983   4.621   7.860  0.8973 -0.7444 -1.7410
 2228TIP3    H232796   2.862   4.593   7.773  0.0471  0.7577 -1.0832
 2229TIP3   OH232797   4.791   1.684   1.575 -0.3818  0.1995  0.2879
 2229TIP3    H132798   4.717   1.683   1.515 -0.6692  1.0628  0.6199
 2229TIP3    H232799   4.868   1.683   1.518 -0.6421 -0.2543 -0.0631
 2230TIP3   OH232800   2.739   5.996   1.333  0.2938  0.0870  0.1317
 2230TIP3    H132801   2.737   6.024   1.242  0.1620 -0.2913  0.0152
 2230TIP3    H232802   2.709   6.072   1.383 -1.2581 -0.2253 -0.2730
 2231TIP3   OH232803   2.842   4.058   1.883 -0.6967 -0.0746  0.1282
 2231TIP3    H132804   2.773   4.044   1.948 -1.3805  0.6531 -0.4224
 2231TIP3    H232805   2.877   4.145   1.902 -0.0721 -0.3490  0.2626
 2232TIP3   OH232806   0.109   3.554   0.395 -0.0858 -0.2921  0.3049
 2232TIP3    H132807   0.184   3.495   0.392 -1.9023 -2.7199 -2.8570
 2232TIP3    H232808   0.137   3.626   0.453  3.0064 -3.1587  2.7574
 2233TIP3   OH232809   1.601   6.794   6.763  0.1960 -0.0963 -0.1196
 2233TIP3    H132810   1.633   6.844   6.838  0.6761  0.0474 -0.4163
 2233TIP3    H232811   1.674   6.736   6.741  0.5298  0.7152 -1.2314
 2234TIP3   OH232812   1.296   3.295   1.846 -0.2437  0.3663  0.0329
 2234TIP3    H132813   1.317   3.213   1.801 -0.5425  0.1909  0.2134
 2234TIP3    H232814   1.363   3.304   1.913 -1.8017 -1.1716  1.8948
 2235TIP3   OH232815   5.036   2.398   7.809 -0.5292 -0.2490 -0.1549
 2235TIP3    H132816   4.971   2.420   7.876 -0.1553 -0.9085  0.4334
 2235TIP3    H232817   5.114   2.373   7.858  0.2335  0.6638 -0.8596
 2236TIP3   OH232818   6.951   4.403   0.665  0.2748  0.2482 -0.4611
 2236TIP3    H132819   7.004   4.325   0.681 -0.2563 -0.0551 -0.1714
 2236TIP3    H232820   6.947   4.447   0.750 -0.1729  0.1207 -0.4138
 2237TIP3   OH232821   0.456   4.127   1.026  0.1362  0.3165  0.5322
 2237TIP3    H132822   0.367   4.124   1.060 -0.1792  1.2834 -0.1834
 2237TIP3    H232823   0.510   4.091   1.097 -0.7006  0.6776  1.3669
 2238TIP3   OH232824   4.999   6.909   7.512  0.4879 -0.1719 -0.2860
 2238TIP3    H132825   5.023   6.840   7.451 -0.5014  0.3352 -1.2830
 2238TIP3    H232826   5.059   6.981   7.492  1.2833 -0.5877  0.5134
 2239TIP3   OH232827   3.453   4.522   1.819 -0.1768 -0.0794  0.2263
 2239TIP3    H132828   3.395   4.547   1.891 -0.9381  0.2382 -0.4748
 2239TIP3    H232829   3.474   4.430   1.836 -0.3935 -0.0219  0.8222
 2240TIP3   OH232830   5.543   3.896   1.615  0.2053  0.2151 -0.1991
 2240TIP3    H132831   5.527   3.805   1.641 -0.5228  0.4323  0.1215
 2240TIP3    H232832   5.636   3.910   1.632  0.7858 -1.0333 -1.9598
 2241TIP3   OH232833   7.228   1.721   2.938 -0.0459 -0.7953  0.8931
 2241TIP3    H132834   7.250   1.637   2.979 -1.1463 -1.4442  0.1934
 2241TIP3    H232835   7.194   1.698   2.852 -1.6599  0.2618  1.1987
 2242TIP3   OH232836   6.889   4.115   7.850  0.2076 -0.3898 -0.3889
 2242TIP3    H132837   6.949   4.042   7.861  0.3417 -0.8142 -3.1665
 2242TIP3    H232838   6.943   4.187   7.818 -0.2517  0.2936  0.3264
 2243TIP3   OH232839   4.272   4.727   1.411 -0.5144  0.2380  0.0630
 2243TIP3    H132840   4.360   4.699   1.436 -0.4843  0.0565 -0.2484
 2243TIP3    H232841   4.231   4.649   1.375  0.0645  0.9004 -2.2168
 2244TIP3   OH232842   0.940   1.523   7.551  0.3528 -0.2285 -0.4853
 2244TIP3    H132843   0.862   1.572   7.525  0.1808 -0.4066 -0.3094
 2244TIP3    H232844   1.013   1.576   7.519  0.2364  1.0768  1.2249
 2245TIP3   OH232845   2.883   0.853   1.279 -0.2758 -0.1676 -0.1200
 2245TIP3    H132846   2.966   0.838   1.325 -0.2651  0.7733  0.1858
 2245TIP3    H232847   2.888   0.944   1.250 -0.8983 -0.3242 -0.7444
 2246TIP3   OH232848   1.135   7.202   2.184  0.4935  0.1835 -0.1136
 2246TIP3    H132849   1.189   7.129   2.153  2.0375  1.7432 -1.3296
 2246TIP3    H232850   1.097   7.239   2.104 -0.5580  0.5062  0.5152
 2247TIP3   OH232851   1.921   4.026   6.039  0.2121  0.4455 -0.2545
 2247TIP3    H132852   1.871   4.006   5.960  1.4630  0.4489 -1.0799
 2247TIP3    H232853   2.013   4.012   6.014  0.6179  0.0449  1.3202
 2248TIP3   OH232854   7.299   4.923   7.215  0.2469 -0.5343  0.1767
 2248TIP3    H132855   7.284   4.856   7.282 -0.0783 -0.9212 -0.2799
 2248TIP3    H232856   7.320   5.002   7.265 -3.1127  0.0449  0.9074
 2249TIP3   OH232857   3.780   5.927   7.408 -0.9713  0.4570  0.1809
 2249TIP3    H132858   3.726   5.989   7.359  0.3415  0.7027 -0.9927
 2249TIP3    H232859   3.768   5.844   7.362 -0.9370  0.3443  0.3762
 2250TIP3   OH232860   6.471   1.855   6.450  0.1024  0.1228 -0.6146
 2250TIP3    H132861   6.470   1.812   6.536  1.9729  3.0058  1.0147
 2250TIP3    H232862   6.553   1.824   6.410  1.2078  1.6250  0.3606
 2251TIP3   OH232863   0.158   0.229   6.113 -0.1897 -0.6427  0.5128
 2251TIP3    H132864   0.121   0.278   6.040  2.6199  1.6748  0.4461
 2251TIP3    H232865   0.157   0.137   6.084 -0.2168  0.0678 -1.9604
 2252TIP3   OH232866   3.371   0.748   0.490  0.3871 -0.2263  0.2674
 2252TIP3    H132867   3.361   0.843   0.496  1.3303 -0.1203  0.2124
 2252TIP3    H232868   3.336   0.715   0.573 -0.9146  0.0728 -0.1339
 2253TIP3   OH232869   2.241   0.480   1.378  0.0754  0.9647 -0.0545
 2253TIP3    H132870   2.222   0.492   1.285 -2.1978  1.9089  0.4626
 2253TIP3    H232871   2.201   0.556   1.421  1.7267  0.9555  1.6614
 2254TIP3   OH232872   8.013   1.866   0.314 -0.0787 -0.3840  0.1530
 2254TIP3    H132873   8.094   1.865   0.365 -0.4519 -0.8270  0.7513
 2254TIP3    H232874   7.943   1.854   0.379 -0.5312 -1.4904 -0.5013
 2255TIP3   OH232875   5.749   7.602   0.323  0.1676 -0.5864 -0.0724
 2255TIP3    H132876   5.790   7.528   0.278 -0.4218 -0.5474 -0.6879
 2255TIP3    H232877   5.765   7.677   0.266  0.2848 -0.3452  0.2777
 2256TIP3   OH232878   1.713   0.917   0.344 -0.7716  0.5444 -0.0791
 2256TIP3    H132879   1.756   0.839   0.380 -1.8067  0.8680  2.0126
 2256TIP3    H232880   1.747   0.989   0.398 -2.6260  1.0160  0.5149
 2257TIP3   OH232881   1.315   0.908   0.769  0.2172 -0.0664 -0.1650
 2257TIP3    H132882   1.280   0.969   0.834 -0.0510  1.9588 -2.0824
 2257TIP3    H232883   1.239   0.858   0.740  0.1866 -0.3809  0.4371
 2258TIP3   OH232884   1.780   3.734   7.484 -0.3563 -0.0680  0.0169
 2258TIP3    H132885   1.784   3.769   7.395  0.6474  1.5071  0.6208
 2258TIP3    H232886   1.870   3.743   7.517 -1.0974  1.2955  1.8481
 2259TIP3   OH232887   1.784   8.036   0.052  0.3693 -0.5037 -0.2662
 2259TIP3    H132888   1.796   8.059  -0.040  1.7025 -3.1194 -0.8431
 2259TIP3    H232889   1.818   8.111   0.101 -0.6544  1.0699 -1.8410
 2260TIP3   OH232890   4.503   2.674   1.174 -0.3945 -0.0319 -0.0472
 2260TIP3    H132891   4.449   2.595   1.169  0.1932 -0.4618  0.1836
 2260TIP3    H232892   4.457   2.732   1.235 -1.5683  0.4072 -1.3047
 2261TIP3   OH232893   5.153   4.450   1.043 -0.4038  0.0883 -0.2700
 2261TIP3    H132894   5.226   4.511   1.048 -0.9280  0.6326  1.0715
 2261TIP3    H232895   5.143   4.432   0.949  0.6722  0.9390 -0.5574
 2262TIP3   OH232896   6.848   1.843   7.847 -0.1635  0.1091  0.0409
 2262TIP3    H132897   6.890   1.758   7.863  0.0730  0.8445  4.3580
 2262TIP3    H232898   6.897   1.880   7.773 -0.4807 -3.5186 -2.2266
 2263TIP3   OH232899   1.455   2.879   0.786  0.2880  0.0904  0.3633
 2263TIP3    H132900   1.485   2.879   0.877 -0.4545  0.0027  0.6134
 2263TIP3    H232901   1.520   2.932   0.740  0.3536  0.6209  1.0485
 2264TIP3   OH232902   5.843   3.952   6.204 -0.5061  0.3783 -0.5018
 2264TIP3    H132903   5.860   3.870   6.157 -0.5846  0.0718  0.0056
 2264TIP3    H232904   5.749   3.950   6.224 -0.2275 -0.1125  0.8315
 2265TIP3   OH232905   8.014   2.302   5.642 -0.1314  0.0049  0.2593
 2265TIP3    H132906   8.080   2.367   5.617  0.0222  0.3093  1.3855
 2265TIP3    H232907   7.939   2.354   5.671  0.2382 -0.2802  1.8231
 2266TIP3   OH232908   7.405   5.728   6.186  0.1542  0.5325 -0.2296
 2266TIP3    H132909   7.472   5.768   6.131 -1.5813  0.5340 -2.4744
 2266TIP3    H232910   7.447   5.650   6.223  1.1588  0.0193 -2.3033
 2267TIP3   OH232911   2.614   1.301   0.916  0.1331  0.3820 -1.0848
 2267TIP3    H132912   2.608   1.205   0.920 -2.0522  0.4623 -1.2443
 2267TIP3    H232913   2.689   1.318   0.860 -0.5350 -1.2881 -2.5797
 2268TIP3   OH232914   1.935   3.797   7.931 -0.2863 -0.0400 -0.5165
 2268TIP3    H132915   2.008   3.827   7.986 -0.9439  1.2450 -0.3049
 2268TIP3    H232916   1.949   3.703   7.921  0.9041  0.0404  0.2603
 2269TIP3   OH232917   4.977   3.150   6.811 -0.0995  0.6686 -0.4607
 2269TIP3    H132918   4.931   3.176   6.890  1.7128 -0.3827  1.0354
 2269TIP3    H232919   4.927   3.076   6.777 -0.0703  0.1546  0.5875
 2270TIP3   OH232920   4.224   7.746   7.429  0.4353 -0.0749 -0.2962
 2270TIP3    H132921   4.236   7.654   7.452  0.5440  0.5988  2.7201
 2270TIP3    H232922   4.282   7.793   7.488 -0.8158  2.0068 -0.6356
 2271TIP3   OH232923   0.725   1.833   0.917 -0.0165  0.2806 -0.8268
 2271TIP3    H132924   0.641   1.851   0.877  0.5463 -0.0157 -2.1821
 2271TIP3    H232925   0.716   1.747   0.957  0.0166 -0.3111 -2.0645
 2272TIP3   OH232926   5.264   5.786   0.670 -0.4085  0.2564  0.0304
 2272TIP3    H132927   5.270   5.880   0.685 -0.2605  0.2097  0.2614
 2272TIP3    H232928   5.318   5.746   0.738 -1.2443 -0.0368  0.5514
 2273TIP3   OH232929   3.811   5.182   7.213  0.2729  0.1922  0.0723
 2273TIP3    H132930   3.794   5.179   7.119 -0.2984 -2.2184  0.1938
 2273TIP3    H232931   3.729   5.215   7.251 -0.2958 -0.9355 -0.1418
 2274TIP3   OH232932   6.266   2.133   0.735  0.1435 -0.2320 -0.0839
 2274TIP3    H132933   6.244   2.053   0.782  0.3458  0.1472  0.6708
 2274TIP3    H232934   6.225   2.123   0.649 -1.6453 -0.2377  0.7151
 2275TIP3   OH232935   0.263   0.236   7.223 -0.4220  0.4595  0.4318
 2275TIP3    H132936   0.273   0.150   7.183 -2.1479  1.4953 -2.5486
 2275TIP3    H232937   0.195   0.224   7.289 -0.3413 -0.5045  0.3573
 2276TIP3   OH232938   1.310   4.653   6.056  0.3226  0.1797  0.5354
 2276TIP3    H132939   1.366   4.728   6.034  0.7647 -0.3255 -0.1046
 2276TIP3    H232940   1.335   4.586   5.993  0.5223 -0.8014  1.6165
 2277TIP3   OH232941   3.790   4.567   1.892  0.1514  0.0645 -0.2960
 2277TIP3    H132942   3.727   4.633   1.922 -1.2501 -0.3704 -2.0873
 2277TIP3    H232943   3.752   4.483   1.920  0.4732 -0.1361 -0.4543
 2278TIP3   OH232944   1.982   5.947   6.581 -0.0678 -0.5206 -0.5029
 2278TIP3    H132945   2.034   5.929   6.503 -0.1577 -0.9884 -0.4607
 2278TIP3    H232946   1.897   5.908   6.562 -0.6354  0.8247 -0.8501
 2279TIP3   OH232947   7.721   3.348   1.349  0.2091  0.1055 -0.5403
 2279TIP3    H132948   7.656   3.406   1.387  1.1319  0.2516  0.8969
 2279TIP3    H232949   7.703   3.262   1.388 -0.2304 -0.2726 -1.5314
 2280TIP3   OH232950   7.316   2.185   5.704 -0.1007 -0.2545  0.7385
 2280TIP3    H132951   7.350   2.174   5.615 -1.8190  0.4221 -0.0495
 2280TIP3    H232952   7.329   2.278   5.723 -1.4558  0.0231  0.4092
 2281TIP3   OH232953   1.183   2.932   2.085  0.0277  0.0027  0.3014
 2281TIP3    H132954   1.249   2.892   2.141 -0.4852  0.1514  1.0272
 2281TIP3    H232955   1.123   2.976   2.146 -1.0277 -0.5622 -0.3028
 2282TIP3   OH232956   6.555   4.199   0.222  0.1742 -0.2817 -0.2910
 2282TIP3    H132957   6.560   4.110   0.186 -0.3948 -0.6348  0.4642
 2282TIP3    H232958   6.642   4.236   0.208  0.3797 -0.9115 -0.7353
 2283TIP3   OH232959   0.567   6.087   7.913  0.1802 -0.3359  0.1919
 2283TIP3    H132960   0.474   6.066   7.907 -0.1778  1.3688 -1.1044
 2283TIP3    H232961   0.606   6.049   7.835  0.6296 -1.2059  0.8249
 2284TIP3   OH232962   5.792   7.254   2.315  0.2679  0.3284  0.2847
 2284TIP3    H132963   5.846   7.193   2.265  0.6321  1.0657 -0.2286
 2284TIP3    H232964   5.743   7.197   2.375  0.0617 -0.5459 -0.6727
 2285TIP3   OH232965   3.084   7.996   1.223 -0.5817  0.1484  0.4294
 2285TIP3    H132966   3.033   7.915   1.223 -2.3245  1.1969 -0.2849
 2285TIP3    H232967   3.043   8.050   1.290 -1.8791  1.8362 -1.6004
 2286TIP3   OH232968   2.183   1.023   1.008  0.4641  0.0142 -0.0395
 2286TIP3    H132969   2.119   0.954   0.995  0.1266  0.2293  0.4657
 2286TIP3    H232970   2.221   1.005   1.094 -0.6239  1.2429  0.7394
 2287TIP3   OH232971   6.260   1.323   0.122 -0.1821 -0.1506  0.3328
 2287TIP3    H132972   6.342   1.367   0.099 -0.9584  0.4332 -1.5459
 2287TIP3    H232973   6.247   1.342   0.215 -0.3439  3.4492 -0.2771
 2288TIP3   OH232974   2.320   3.829   2.543 -0.0034  0.1428  0.5290
 2288TIP3    H132975   2.416   3.823   2.552  0.1841 -0.6070 -1.3731
 2288TIP3    H232976   2.297   3.751   2.491 -1.3989  1.2410 -0.5751
 2289TIP3   OH232977   4.679   4.963   7.359 -0.1717  1.3863 -0.0638
 2289TIP3    H132978   4.756   4.984   7.306 -0.8198  1.5120 -0.9636
 2289TIP3    H232979   4.607   5.010   7.317 -0.8713  0.6989  0.3523
 2290TIP3   OH232980   1.638   3.929   6.954  0.2694  0.0668 -0.0966
 2290TIP3    H132981   1.713   3.959   6.903  0.6849 -1.2939 -0.3307
 2290TIP3    H232982   1.573   3.999   6.944  1.5286  1.3295  0.2159
 2291TIP3   OH232983   0.801   5.411   6.756  0.1292 -0.0385 -0.0427
 2291TIP3    H132984   0.756   5.326   6.754  0.5374 -0.2544 -0.0669
 2291TIP3    H232985   0.877   5.399   6.699 -0.0158  0.4616 -0.3463
 2292TIP3   OH232986   6.034   2.983   2.596 -0.1173 -0.0513 -0.1957
 2292TIP3    H132987   6.118   2.958   2.632 -0.1130  0.7014  0.3499
 2292TIP3    H232988   5.984   2.902   2.591  0.2096 -0.3155  0.6390
 2293TIP3   OH232989   2.778   0.446   7.531  0.0360  0.1786  0.4855
 2293TIP3    H132990   2.687   0.468   7.511 -0.0523  0.1350  0.8251
 2293TIP3    H232991   2.777   0.426   7.625  0.1550 -0.9988  0.2524
 2294TIP3   OH232992   6.427   7.949   1.198 -0.3435 -0.0432  0.3128
 2294TIP3    H132993   6.387   7.899   1.270 -0.4206  0.3656  0.5567
 2294TIP3    H232994   6.384   7.914   1.119  1.2876 -2.0334  0.2137
 2295TIP3   OH232995   5.820   6.880   7.278 -0.0465  0.0131  0.2038
 2295TIP3    H132996   5.903   6.919   7.304  0.4518  0.3049 -1.6477
 2295TIP3    H232997   5.827   6.788   7.305 -0.5041  0.7280  2.9857
 2296TIP3   OH232998   5.202   3.985   6.652  0.5945  0.0270  0.0712
 2296TIP3    H132999   5.118   4.008   6.614  1.8535 -1.1621 -3.9932
 2296TIP3    H233000   5.181   3.944   6.736 -2.9701 -1.0160 -1.1631
 2297TIP3   OH233001   1.925   5.719   1.620 -0.4614  0.0652 -0.3600
 2297TIP3    H133002   1.980   5.797   1.622 -0.7790  0.2911 -0.3282
 2297TIP3    H233003   1.866   5.729   1.695  0.1927 -0.7275  0.2701
 2298TIP3   OH233004   2.584   2.733   0.425 -0.0169 -0.2931 -0.4832
 2298TIP3    H133005   2.543   2.680   0.493 -0.5514  0.2584 -0.3721
 2298TIP3    H233006   2.596   2.819   0.465  0.3561 -0.1723 -0.8402
 2299TIP3   OH233007   3.418   2.261   7.503  0.3525  0.1450 -0.9079
 2299TIP3    H133008   3.514   2.262   7.512  0.3477 -2.7248  0.4314
 2299TIP3    H233009   3.394   2.169   7.510 -2.7060  0.9363  1.1739
 2300TIP3   OH233010   0.104   2.160   6.106 -0.1770  1.1006  0.1059
 2300TIP3    H133011   0.101   2.101   6.181  0.3254  1.6754  0.5851
 2300TIP3    H233012   0.136   2.105   6.034  1.5955  1.0765  0.8643
 2301TIP3   OH233013   0.672   4.610   0.761  0.4957  0.4245 -0.1604
 2301TIP3    H133014   0.602   4.670   0.787 -0.2982 -0.0735 -1.0809
 2301TIP3    H233015   0.722   4.595   0.841 -0.3574  0.9150  0.4835
 2302TIP3   OH233016   5.499   7.484   6.804 -0.1035 -0.1977 -0.1758
 2302TIP3    H133017   5.570   7.533   6.846  0.0590 -0.0680 -0.5950
 2302TIP3    H233018   5.524   7.479   6.712 -0.9032  0.3216 -0.4314
 2303TIP3   OH233019   7.177   7.522   5.621 -0.0306 -0.3117  0.8280
 2303TIP3    H133020   7.120   7.449   5.597  0.3587  0.0869 -1.6154
 2303TIP3    H233021   7.238   7.485   5.684 -1.0918 -1.5481  1.1775
 2304TIP3   OH233022   3.604   5.409   1.209 -0.0418 -0.0895 -0.2446
 2304TIP3    H133023   3.557   5.403   1.126 -0.3594  1.2236 -0.1817
 2304TIP3    H233024   3.584   5.327   1.255 -1.8786  0.2239 -0.4246
 2305TIP3   OH233025   5.669   0.833   7.345  0.3092 -0.0447  0.5659
 2305TIP3    H133026   5.734   0.786   7.397  1.1220 -0.0944 -0.4700
 2305TIP3    H233027   5.588   0.824   7.396  0.7462 -1.3456  1.0996
 2306TIP3   OH233028   3.607   1.130   0.553  0.0001  0.0349 -0.2104
 2306TIP3    H133029   3.532   1.083   0.519  1.1270 -2.1550  0.1773
 2306TIP3    H233030   3.577   1.165   0.637 -0.8784  0.0909 -0.5350
 2307TIP3   OH233031   4.312   1.007   5.932  0.3976  0.4150  0.4581
 2307TIP3    H133032   4.279   0.982   5.846  1.3573  0.7786 -0.0316
 2307TIP3    H233033   4.264   1.087   5.954 -0.7980 -0.3893  0.8721
 2308TIP3   OH233034   6.361   3.054   5.741  0.4561 -0.2029  0.6170
 2308TIP3    H133035   6.422   3.079   5.672 -1.1528 -1.2913 -1.2927
 2308TIP3    H233036   6.405   3.079   5.822  1.4735  3.2425 -0.8321
 2309TIP3   OH233037   6.670   6.510   6.827  0.5696  0.1637  0.2003
 2309TIP3    H133038   6.726   6.437   6.853 -0.1213 -0.6683 -0.5822
 2309TIP3    H233039   6.589   6.469   6.799  0.8587  1.0531 -2.1800
 2310TIP3   OH233040   4.604   2.763   0.267  0.8617 -0.9300 -0.4360
 2310TIP3    H133041   4.617   2.677   0.308  1.6525 -1.0237 -0.8570
 2310TIP3    H233042   4.591   2.823   0.340 -0.3513 -1.5019 -0.1595
 2311TIP3   OH233043   3.545   3.074   0.427  0.2459 -0.2689  0.2647
 2311TIP3    H133044   3.611   3.123   0.477  0.4570  0.3996 -0.6461
 2311TIP3    H233045   3.593   2.999   0.392  1.3141  1.6447 -2.7114
 2312TIP3   OH233046   7.041   3.155   0.208 -0.0018 -0.0408  0.2191
 2312TIP3    H133047   7.079   3.243   0.202  0.8665 -0.4510 -0.6806
 2312TIP3    H233048   7.105   3.098   0.165 -1.2153 -0.9082 -0.5082
 2313TIP3   OH233049   6.135   0.313   1.302  0.3239 -0.1550 -0.2139
 2313TIP3    H133050   6.115   0.273   1.386  0.2591  0.6323  0.1542
 2313TIP3    H233051   6.116   0.406   1.315 -1.6914 -0.2845 -1.6955
 2314TIP3   OH233052   0.675   2.236   2.327  0.2116  0.3554  0.0355
 2314TIP3    H133053   0.644   2.177   2.258 -2.3582 -0.2595  1.5789
 2314TIP3    H233054   0.735   2.182   2.379 -0.1998 -0.1223  0.0195
 2315TIP3   OH233055   4.663   4.019   0.467 -0.3538  0.1312  0.2014
 2315TIP3    H133056   4.649   4.010   0.561  0.9473 -0.6361  0.3526
 2315TIP3    H233057   4.643   4.111   0.449 -1.5994  0.0478  1.0230
 2316TIP3   OH233058   2.445   1.870   7.669  0.1325 -0.0950  0.1326
 2316TIP3    H133059   2.362   1.874   7.622 -0.7848 -0.9723  1.6181
 2316TIP3    H233060   2.478   1.782   7.654  0.7960  0.2298 -0.4039
 2317TIP3   OH233061   6.919   6.587   0.697  0.2469  0.6471  0.1058
 2317TIP3    H133062   6.983   6.577   0.768 -0.0047  1.0408  0.3903
 2317TIP3    H233063   6.904   6.497   0.666  0.8620  0.5441  0.1007
 2318TIP3   OH233064   1.903   3.673   2.118  0.2949  0.3283 -0.4904
 2318TIP3    H133065   1.928   3.592   2.074  2.4622 -0.5316  2.0028
 2318TIP3    H233066   1.821   3.699   2.078  1.0888 -1.3881 -3.5321
 2319TIP3   OH233067   7.106   4.522   1.980  0.1295 -0.2897  0.2048
 2319TIP3    H133068   7.122   4.552   2.069  1.1156  1.4798 -0.5054
 2319TIP3    H233069   7.162   4.578   1.926  1.5789 -3.0005 -1.3251
 2320TIP3   OH233070   3.157   7.656   7.115  0.0794  0.1864  0.1619
 2320TIP3    H133071   3.171   7.662   7.210  0.4418  0.9788  0.0682
 2320TIP3    H233072   3.063   7.645   7.106 -0.2304  2.0812  0.5673
 2321TIP3   OH233073   2.216   0.388   7.752  0.3180 -0.6401 -0.3044
 2321TIP3    H133074   2.191   0.480   7.758 -0.8883 -1.0304  1.3147
 2321TIP3    H233075   2.305   0.390   7.717 -0.2229  1.0484 -1.7099
 2322TIP3   OH233076   2.710   4.509   6.837 -0.0042  0.4122  0.5495
 2322TIP3    H133077   2.712   4.511   6.742  1.1700 -1.8316  0.4667
 2322TIP3    H233078   2.678   4.596   6.862 -1.9574  0.5057 -1.8927
 2323TIP3   OH233079   2.240   1.982   6.687 -0.4105  0.0790  0.1897
 2323TIP3    H133080   2.214   1.910   6.744 -1.8491  1.7268  1.7443
 2323TIP3    H233081   2.206   1.957   6.601 -1.6885 -0.7034  0.8837
 2324TIP3   OH233082   2.318   5.189   1.714 -0.2522 -0.3387  0.3591
 2324TIP3    H133083   2.267   5.153   1.787  0.2325 -1.0760  0.3410
 2324TIP3    H233084   2.397   5.135   1.710 -0.4962 -0.6425 -1.0378
 2325TIP3   OH233085   2.178   4.846   0.368  0.0543  0.1157  0.3717
 2325TIP3    H133086   2.171   4.784   0.295 -1.1212 -0.4947  0.9742
 2325TIP3    H233087   2.161   4.931   0.328 -2.2283 -0.3728  0.1582
 2326TIP3   OH233088   6.812   2.959   7.099  0.2930 -0.2064  0.0079
 2326TIP3    H133089   6.812   3.001   7.185 -0.9972  1.4718 -0.7545
 2326TIP3    H233090   6.853   3.024   7.041  0.3408 -0.9512 -0.8169
 2327TIP3   OH233091   2.896   0.107   0.914  0.2268  1.1838  0.0022
 2327TIP3    H133092   2.922   0.094   1.005  0.9097  0.9352 -0.2199
 2327TIP3    H233093   2.954   0.176   0.881  2.3344 -0.9894 -1.1733
 2328TIP3   OH233094   6.311   7.449   1.862 -0.0737  0.1390  0.0766
 2328TIP3    H133095   6.265   7.484   1.938 -0.3095 -1.0412  0.4973
 2328TIP3    H233096   6.316   7.354   1.878  1.8110  0.1393 -0.3321
 2329TIP3   OH233097   4.457   6.139   0.441 -0.1398  0.2592  0.2390
 2329TIP3    H133098   4.498   6.054   0.456  0.2295  0.1186 -1.3747
 2329TIP3    H233099   4.498   6.172   0.361 -0.8135  1.6224  0.4266
 2330TIP3   OH233100   5.347   8.027   1.195  0.4268  0.4113  0.2900
 2330TIP3    H133101   5.376   8.118   1.182  1.3585  0.0894 -0.0269
 2330TIP3    H233102   5.419   7.975   1.159 -0.0479 -0.4553  0.5837
 2331TIP3   OH233103   3.840   0.534   7.794 -0.0837 -0.0732 -0.2737
 2331TIP3    H133104   3.793   0.580   7.724 -2.3493 -1.0705  0.4914
 2331TIP3    H233105   3.823   0.587   7.872  0.5652 -0.1561 -0.0707
 2332TIP3   OH233106   6.153   4.697   6.024  0.0874  0.0460  1.0875
 2332TIP3    H133107   6.161   4.718   6.117 -0.8432  0.4938  1.0751
 2332TIP3    H233108   6.113   4.775   5.985  2.3290  0.7141 -0.0665
 2333TIP3   OH233109   1.521   5.474   0.744  0.1491 -0.0585  0.2089
 2333TIP3    H133110   1.469   5.402   0.779  0.7234 -0.5656  0.0166
 2333TIP3    H233111   1.552   5.443   0.659  2.6013 -0.6633  1.2379
 2334TIP3   OH233112   3.815   6.185   1.309 -0.0056  0.9035  0.3577
 2334TIP3    H133113   3.757   6.110   1.303 -0.0259  1.0419 -1.4949
 2334TIP3    H233114   3.881   6.158   1.374  0.6059 -1.1677 -1.0144
 2335TIP3   OH233115   4.599   4.947   5.820 -0.1487  0.1318 -0.5975
 2335TIP3    H133116   4.605   4.920   5.728  0.9297 -1.1805 -0.1778
 2335TIP3    H233117   4.513   4.915   5.848  0.0153 -0.5491 -0.8402
 2336TIP3   OH233118   7.190   0.861   7.727  0.0121 -0.6538  0.0185
 2336TIP3    H133119   7.257   0.797   7.752 -0.2800 -1.1790 -0.5368
 2336TIP3    H233120   7.107   0.813   7.731 -0.4938  0.2822  1.8160
 2337TIP3   OH233121   2.566   3.088   7.511 -0.0867  0.1745 -0.0193
 2337TIP3    H133122   2.582   3.091   7.606 -0.7775  0.1116  0.1027
 2337TIP3    H233123   2.522   3.005   7.497 -0.1093  0.2475 -0.3779
 2338TIP3   OH233124   2.768   4.253   0.392  0.2185 -0.8381  0.2634
 2338TIP3    H133125   2.846   4.269   0.338 -0.7052  0.6521 -0.7258
 2338TIP3    H233126   2.696   4.247   0.328 -1.0615  1.9251  1.2706
 2339TIP3   OH233127   4.088   4.077   6.427 -0.1996 -0.1541 -0.3157
 2339TIP3    H133128   4.050   4.067   6.514 -0.0448  0.9931 -0.1142
 2339TIP3    H233129   4.168   4.025   6.430  0.2614  0.6005  0.5075
 2340TIP3   OH233130   1.338   2.614   2.321 -0.0781 -0.3230  0.7806
 2340TIP3    H133131   1.286   2.652   2.392 -0.8381  1.6074 -0.6930
 2340TIP3    H233132   1.314   2.522   2.320 -1.9682  0.1119  1.4651
 2341TIP3   OH233133   4.113   2.763   6.786 -0.1654 -0.1099  0.1237
 2341TIP3    H133134   4.182   2.779   6.850  1.5494  1.3799 -1.9721
 2341TIP3    H233135   4.032   2.786   6.832  0.9143  0.2648  1.9439
 2342TIP3   OH233136   6.440   2.354   7.233  0.3304  0.0182  0.0132
 2342TIP3    H133137   6.372   2.303   7.191 -0.5480  0.6660  0.6179
 2342TIP3    H233138   6.433   2.334   7.326 -0.0506  1.2297  0.2690
 2343TIP3   OH233139   3.811   5.421   1.575  0.3844 -0.0491 -0.3815
 2343TIP3    H133140   3.822   5.496   1.634 -2.2309 -0.7158  1.1584
 2343TIP3    H233141   3.799   5.461   1.489  0.9721  1.1893  0.0765
 2344TIP3   OH233142   6.781   3.832   1.285  0.1484 -0.4836  0.2189
 2344TIP3    H133143   6.858   3.786   1.251 -0.2666 -1.0152 -0.0370
 2344TIP3    H233144   6.766   3.793   1.371  1.6518  1.3983  1.4026
 2345TIP3   OH233145   6.809   4.612   6.100  0.0366  0.6660  0.4880
 2345TIP3    H133146   6.825   4.704   6.120  0.6747  0.6997 -0.1633
 2345TIP3    H233147   6.796   4.609   6.006 -0.4525  0.1503  0.5670
 2346TIP3   OH233148   0.596   2.845   5.721  0.2867  0.2291  0.2736
 2346TIP3    H133149   0.638   2.885   5.645 -0.1851  1.6622  0.7473
 2346TIP3    H233150   0.668   2.804   5.768  0.6867 -0.0579 -0.5609
 2347TIP3   OH233151   7.884   6.472   0.331  0.7145  0.1690 -0.7338
 2347TIP3    H133152   7.942   6.440   0.262  2.2861  1.8234 -0.2485
 2347TIP3    H233153   7.939   6.480   0.408 -0.3399  1.0231 -0.0308
 2348TIP3   OH233154   0.444   1.886   0.141  0.3416  0.5155  0.1815
 2348TIP3    H133155   0.489   1.803   0.124  0.9063  0.8197  0.1993
 2348TIP3    H233156   0.485   1.948   0.081  0.0212  0.8190  0.2753
 2349TIP3   OH233157   4.084   0.826   6.441  0.5253 -0.9461 -0.1917
 2349TIP3    H133158   4.079   0.736   6.473  2.3131 -0.7527  0.7690
 2349TIP3    H233159   4.178   0.844   6.433  0.2209  0.9013 -0.1881
 2350TIP3   OH233160   3.809   7.623   0.336 -0.2859  0.4301 -0.0565
 2350TIP3    H133161   3.891   7.636   0.290 -0.3619  0.3356 -0.2202
 2350TIP3    H233162   3.821   7.668   0.420  0.1640 -0.1280  0.1814
 2351TIP3   OH233163   3.435   7.588   7.501  0.4878  0.1693 -0.3191
 2351TIP3    H133164   3.349   7.594   7.544  0.0307 -0.9490 -1.0455
 2351TIP3    H233165   3.480   7.518   7.548  0.3726 -0.3643 -0.9949
 2352TIP3   OH233166   7.959   7.140   7.825 -0.5492  0.1889 -0.3196
 2352TIP3    H133167   8.017   7.139   7.901 -1.6743  1.5663  0.6230
 2352TIP3    H233168   7.925   7.230   7.823 -1.6060 -0.2147 -1.6255
 2353TIP3   OH233169   4.266   1.245   1.682 -0.1258 -0.6579 -0.3478
 2353TIP3    H133170   4.202   1.311   1.654  0.1003 -0.1129  0.3898
 2353TIP3    H233171   4.224   1.161   1.664 -0.3863 -0.3243 -1.3787
 2354TIP3   OH233172   4.369   7.445   1.687  0.4416  0.5135  0.1834
 2354TIP3    H133173   4.376   7.538   1.709 -1.1452  0.6834  0.0660
 2354TIP3    H233174   4.275   7.428   1.683  0.5879 -1.7770  3.0369
 2355TIP3   OH233175   1.057   0.269   0.939  0.0015  0.3387 -0.3911
 2355TIP3    H133176   1.078   0.186   0.981 -2.3379  0.8717  2.1102
 2355TIP3    H233177   1.106   0.268   0.857  0.5453 -3.2056 -0.1575
 2356TIP3   OH233178   5.455   7.996   1.801 -0.2369  0.0574 -0.1771
 2356TIP3    H133179   5.378   7.952   1.838  0.5716 -1.6492 -0.4239
 2356TIP3    H233180   5.459   7.966   1.710 -0.2813  1.5646 -0.7125
 2357TIP3   OH233181   2.026   3.914   7.090  0.6171  0.0093  0.0354
 2357TIP3    H133182   1.980   3.942   7.011 -0.1962  0.2867  0.5861
 2357TIP3    H233183   2.114   3.949   7.081  0.0184  1.6112  0.0856
 2358TIP3   OH233184   3.418   2.089   1.851  1.3836  0.2369 -0.4927
 2358TIP3    H133185   3.454   2.034   1.921  0.1829  2.0091  1.6685
 2358TIP3    H233186   3.335   2.046   1.827  0.5667  0.8919  1.0150
 2359TIP3   OH233187   4.033   1.778   7.690  0.7735 -0.4415 -0.7943
 2359TIP3    H133188   3.952   1.813   7.727 -0.0100 -0.9116 -1.9952
 2359TIP3    H233189   4.096   1.850   7.696 -0.1168  0.3759 -1.0293
 2360TIP3   OH233190   5.835   5.609   1.689  0.1811  0.0575 -0.2716
 2360TIP3    H133191   5.759   5.620   1.747  0.4460 -1.6127  0.4460
 2360TIP3    H233192   5.906   5.586   1.749  1.4045  2.0290 -0.8826
 2361TIP3   OH233193   0.116   2.941   6.657 -0.1777 -0.2149 -0.2064
 2361TIP3    H133194   0.204   2.903   6.660 -1.2777 -3.0400  2.1015
 2361TIP3    H233195   0.126   3.028   6.695  1.6182 -0.5312  0.1288
 2362TIP3   OH233196   0.972   7.059   0.136  0.6124 -0.3149  0.6886
 2362TIP3    H133197   1.021   7.014   0.067 -0.7310  0.0838 -0.5860
 2362TIP3    H233198   0.925   7.129   0.091  0.3581  0.5203  2.1653
 2363TIP3   OH233199   3.086   0.885   7.650  0.2175  0.2243 -0.1444
 2363TIP3    H133200   3.107   0.792   7.641  1.2344  0.4839 -0.6175
 2363TIP3    H233201   3.006   0.897   7.598  0.0813 -0.3861 -0.0784
 2364TIP3   OH233202   4.102   6.767   7.500 -0.3890 -0.1049  0.0271
 2364TIP3    H133203   4.036   6.827   7.465 -0.8938 -0.9461 -0.5117
 2364TIP3    H233204   4.052   6.706   7.554  0.2456  0.5251  1.3893
 2365TIP3   OH233205   1.485   7.231   7.038 -0.0181 -0.1879  0.7101
 2365TIP3    H133206   1.537   7.287   6.980  1.1906  0.6579  2.5087
 2365TIP3    H233207   1.468   7.152   6.987  0.9647  0.5244 -0.7796
 2366TIP3   OH233208   4.428   4.639   6.067 -0.1920 -0.0228 -0.0864
 2366TIP3    H133209   4.448   4.639   5.973  1.8750 -0.1693  0.3062
 2366TIP3    H233210   4.428   4.732   6.091 -2.5646  0.1561 -0.5249
 2367TIP3   OH233211   7.194   6.829   6.943 -0.7133  0.1326  0.2045
 2367TIP3    H133212   7.232   6.855   6.859 -2.5682  0.0645 -0.7199
 2367TIP3    H233213   7.259   6.856   7.008 -0.1030  2.0750 -1.0949
 2368TIP3   OH233214   7.596   4.626   5.744 -0.7839  0.2723  0.1990
 2368TIP3    H133215   7.663   4.625   5.675 -0.2988  0.2090  0.6654
 2368TIP3    H233216   7.567   4.535   5.750 -2.0822  0.5575 -1.1114
 2369TIP3   OH233217   3.974   3.343   0.662 -0.2771  0.1641  0.1385
 2369TIP3    H133218   3.889   3.322   0.702 -0.2391 -1.2711 -0.4646
 2369TIP3    H233219   3.974   3.294   0.580  0.0958  2.1996 -1.1409
 2370TIP3   OH233220   8.071   0.250   1.231  0.4142 -0.3075  0.4064
 2370TIP3    H133221   8.121   0.265   1.311  0.0978  0.3962  0.4789
 2370TIP3    H233222   8.050   0.157   1.233  1.8128 -0.6482  0.3127
 2371TIP3   OH233223   5.182   1.564   0.035 -0.3867  0.1754 -0.2603
 2371TIP3    H133224   5.165   1.512   0.113  0.8396 -1.0192 -0.7510
 2371TIP3    H233225   5.171   1.502  -0.038 -0.4932  1.0089 -0.9670
 2372TIP3   OH233226   1.987   1.535   7.386  0.3356 -0.2127  0.7021
 2372TIP3    H133227   1.990   1.630   7.380 -0.5053 -0.2597 -0.6948
 2372TIP3    H233228   1.895   1.514   7.398  0.2609 -0.9299 -0.8898
 2373TIP3   OH233229   1.304   0.917   0.421  0.0453 -0.2300 -0.3069
 2373TIP3    H133230   1.339   0.828   0.415 -0.7577 -0.5236 -0.9050
 2373TIP3    H233231   1.210   0.906   0.406  0.2296  0.9598 -2.8127
 2374TIP3   OH233232   0.594   2.394   1.089 -0.3654  0.4680  0.8622
 2374TIP3    H133233   0.520   2.444   1.124  0.8668  1.9052  1.5263
 2374TIP3    H233234   0.644   2.367   1.166 -0.5244 -1.0636  0.4588
 2375TIP3   OH233235   4.800   3.944   7.119 -0.7535 -0.2677  0.4921
 2375TIP3    H133236   4.793   4.006   7.047  1.0842  0.5238  0.9415
 2375TIP3    H233237   4.802   3.998   7.198  0.4029 -0.9099  0.9242
 2376TIP3   OH233238   4.466   3.172   7.829  0.4130 -1.0839 -0.9179
 2376TIP3    H133239   4.535   3.183   7.763 -0.2929 -0.7675 -1.6174
 2376TIP3    H233240   4.490   3.091   7.875  2.3742  0.0906  0.2429
 2377TIP3   OH233241   2.785   5.126   6.311  0.6999  0.5278  0.1787
 2377TIP3    H133242   2.815   5.109   6.222 -0.1427 -2.1862  0.3196
 2377TIP3    H233243   2.737   5.208   6.305 -0.7620 -0.3803 -2.2858
 2378TIP3   OH233244   3.222   0.346   1.165 -0.4179  0.0952  0.4227
 2378TIP3    H133245   3.217   0.346   1.261  0.7141 -1.9228  0.5357
 2378TIP3    H233246   3.302   0.297   1.145  0.7610  2.6348 -1.5640
 2379TIP3   OH233247   0.808   3.633   0.910 -0.7560  0.3434  0.1789
 2379TIP3    H133248   0.882   3.574   0.925 -1.0647 -0.1826 -0.3273
 2379TIP3    H233249   0.731   3.583   0.937 -0.8725  1.1985  1.5328
 2380TIP3   OH233250   1.394   3.067   7.756 -0.7587 -0.2698 -0.0593
 2380TIP3    H133251   1.438   3.122   7.691  0.5132 -1.6413 -0.4277
 2380TIP3    H233252   1.454   3.064   7.830 -1.2820 -0.3441  0.3691
 2381TIP3   OH233253   0.262   2.430   7.599 -0.3425  0.2896 -0.3982
 2381TIP3    H133254   0.204   2.494   7.641 -0.9612  0.5384 -1.5687
 2381TIP3    H233255   0.326   2.483   7.551 -0.2360  0.0232 -0.5533
 2382TIP3   OH233256   2.762   3.089   6.717  0.8281 -0.0791 -0.1389
 2382TIP3    H133257   2.737   3.124   6.631 -2.2320 -2.4435 -0.3624
 2382TIP3    H233258   2.689   3.110   6.774  0.8445 -2.2325  0.7614
 2383TIP3   OH233259   2.099   1.529   6.560  0.0470 -0.2314  0.2460
 2383TIP3    H133260   2.159   1.468   6.518 -0.6530 -1.4013  0.9121
 2383TIP3    H233261   2.139   1.550   6.644 -1.0891 -2.1296  1.3263
 2384TIP3   OH233262   3.992   2.806   0.625  0.2152  0.1054  0.0341
 2384TIP3    H133263   3.919   2.814   0.687 -0.3478  0.8762 -0.7085
 2384TIP3    H233264   4.049   2.739   0.663  0.5775  1.4905  2.0765
 2385TIP3   OH233265   3.540   7.268   0.650 -0.2934 -0.2523  0.1159
 2385TIP3    H133266   3.498   7.353   0.663 -3.3899 -1.5632 -0.3373
 2385TIP3    H233267   3.510   7.240   0.563  1.2504 -1.4973 -0.0575
 2386TIP3   OH233268   0.847   8.096   1.644 -0.6109 -0.6797 -0.3267
 2386TIP3    H133269   0.867   8.023   1.702 -1.0067 -1.2156 -0.8604
 2386TIP3    H233270   0.932   8.124   1.609  0.1224  1.6462  2.7905
 2387TIP3   OH233271   5.296   6.076   7.065 -0.8050  0.1787 -0.3906
 2387TIP3    H133272   5.226   6.013   7.083 -1.6625  0.7447 -1.6448
 2387TIP3    H233273   5.355   6.029   7.006  0.1237 -0.4328  0.9641
 2388TIP3   OH233274   5.066   4.950   6.326 -0.2905  0.4736  0.0151
 2388TIP3    H133275   5.081   5.039   6.358  2.1217  0.0971  0.0711
 2388TIP3    H233276   5.053   4.898   6.406  0.6881  0.3845  0.1225
 2389TIP3   OH233277   3.719   3.015   6.470 -0.0155  0.2072 -0.6033
 2389TIP3    H133278   3.807   2.980   6.485 -0.1791  0.4944  1.2385
 2389TIP3    H233279   3.696   2.987   6.381  0.5353 -2.9156  0.1462
 2390TIP3   OH233280   7.232   4.135   1.054 -0.2586 -0.2470  0.5209
 2390TIP3    H133281   7.310   4.160   1.005  0.6708 -0.4261  1.8630
 2390TIP3    H233282   7.225   4.040   1.041 -1.9921  0.1063 -1.9904
 2391TIP3   OH233283   5.729   4.388   1.130  0.4344 -0.3954 -0.3989
 2391TIP3    H133284   5.794   4.420   1.193  1.2170 -0.2874 -1.2377
 2391TIP3    H233285   5.779   4.333   1.070 -0.5001 -1.4146 -0.2789
 2392TIP3   OH233286   2.783   0.220   0.257 -0.2792  0.2056 -0.1685
 2392TIP3    H133287   2.744   0.135   0.234 -1.0924  0.5402 -0.0561
 2392TIP3    H233288   2.798   0.214   0.351  0.5523 -0.1605 -0.3147
 2393TIP3   OH233289   0.485   4.721   6.235  0.0825 -0.1812 -0.0476
 2393TIP3    H133290   0.524   4.691   6.153  0.5417 -1.9871  0.7723
 2393TIP3    H233291   0.391   4.709   6.223  0.2614 -2.2984  0.3155
 2394TIP3   OH233292   5.124   3.279   6.193  0.5472  0.4729 -0.6549
 2394TIP3    H133293   5.122   3.190   6.229 -3.7808  0.0682 -1.3023
 2394TIP3    H233294   5.159   3.268   6.104 -0.2969 -0.7165 -0.8737
 2395TIP3   OH233295   1.898   4.430   0.530 -0.3931  0.1866 -0.7084
 2395TIP3    H133296   1.821   4.377   0.548 -0.5066  0.5650 -0.0282
 2395TIP3    H233297   1.868   4.520   0.541 -0.0976  0.3728 -1.4306
 2396TIP3   OH233298   2.070   2.337   5.872  0.1021 -0.4569 -0.1285
 2396TIP3    H133299   2.135   2.405   5.885 -0.2163 -0.2640  0.4965
 2396TIP3    H233300   2.056   2.300   5.959 -0.0999 -0.9793 -0.3774
 2397TIP3   OH233301   4.186   6.503   6.595  0.1789 -0.0262 -0.3721
 2397TIP3    H133302   4.257   6.467   6.542  2.0657 -0.8402  2.4644
 2397TIP3    H233303   4.150   6.574   6.542  3.1742  0.4647 -1.9724
 2398TIP3   OH233304   1.827   1.621   0.687  0.4470 -0.3169  0.7701
 2398TIP3    H133305   1.743   1.663   0.667  0.7723  0.9928  1.9703
 2398TIP3    H233306   1.882   1.640   0.610 -0.7962 -2.6080 -0.7728
 2399TIP3   OH233307   0.777   1.993   7.777  0.2676 -0.3447 -0.7564
 2399TIP3    H133308   0.720   1.933   7.730 -0.0067 -1.0117  0.3838
 2399TIP3    H233309   0.718   2.041   7.835  0.7764 -0.6272  0.0084
 2400TIP3   OH233310   6.023   1.318   5.836 -0.2912 -0.2034  0.5117
 2400TIP3    H133311   6.114   1.294   5.816  0.3331  1.9346  0.5758
 2400TIP3    H233312   6.031   1.391   5.898 -2.0668 -0.1040  0.6641
 2401TIP3   OH233313   1.097   7.517   1.171  0.3573 -0.3042 -0.8745
 2401TIP3    H133314   1.094   7.546   1.080 -0.5550 -0.1466 -0.7965
 2401TIP3    H233315   1.028   7.452   1.178 -0.2889  0.4480 -0.0425
 2402TIP3   OH233316   4.378   4.695   7.679 -0.6278 -0.4152  0.1326
 2402TIP3    H133317   4.301   4.672   7.626 -0.6234  0.3856 -0.2230
 2402TIP3    H233318   4.452   4.686   7.620 -0.4690 -0.8574  0.3867
 2403TIP3   OH233319   2.353   7.288   0.947 -0.0574  0.5702 -0.6316
 2403TIP3    H133320   2.385   7.266   1.034 -1.6601 -2.0381 -0.6038
 2403TIP3    H233321   2.362   7.383   0.941  1.8570  0.6051  1.6185
 2404TIP3   OH233322   7.067   0.008   6.607 -0.1591  0.2953 -0.1637
 2404TIP3    H133323   7.138   0.019   6.544  1.2725 -1.0779  1.1068
 2404TIP3    H233324   7.104   0.040   6.690 -0.5896 -1.4372  0.7485
 2405TIP3   OH233325   0.696   3.816   1.337 -0.0825 -0.3764 -0.1508
 2405TIP3    H133326   0.615   3.773   1.362 -0.5758  0.6159  0.0126
 2405TIP3    H233327   0.674   3.909   1.336  1.4147  0.0494  1.3457
 2406TIP3   OH233328   3.927   3.814   0.286  0.4556 -0.1022  0.4410
 2406TIP3    H133329   3.928   3.859   0.370  1.9939  0.4726  0.1396
 2406TIP3    H233330   3.878   3.872   0.228 -1.3597 -0.8999  1.1189
 2407TIP3   OH233331   7.127   7.784   0.830 -0.1187 -0.4114 -0.2224
 2407TIP3    H133332   7.190   7.782   0.758  1.2630  0.5252  0.8986
 2407TIP3    H233333   7.132   7.696   0.868 -0.5644 -0.7843 -0.9931
 2408TIP3   OH233334   4.796   5.378   2.578  0.0399  0.5649  0.3378
 2408TIP3    H133335   4.793   5.473   2.564 -0.8198  0.3611 -1.0347
 2408TIP3    H233336   4.722   5.345   2.528  0.1036 -0.8043  1.1222
 2409TIP3   OH233337   4.210   4.442   7.041  0.2593 -0.2221 -0.1156
 2409TIP3    H133338   4.300   4.468   7.063  0.3588  0.1520 -0.9317
 2409TIP3    H233339   4.166   4.523   7.019 -0.4817 -0.3296  0.9428
 2410TIP3   OH233340   2.024   0.202   7.730  0.0932  0.0847 -0.2800
 2410TIP3    H133341   2.109   0.243   7.715  0.4782  0.0009  1.4106
 2410TIP3    H233342   1.972   0.227   7.654  1.9950 -0.9533 -2.0384
 2411TIP3   OH233343   3.347   5.766   0.543 -0.0234 -0.2739 -0.1055
 2411TIP3    H133344   3.435   5.729   0.541  1.0835  2.2016 -0.5036
 2411TIP3    H233345   3.346   5.822   0.620 -0.7900  0.7234 -0.8130
 2412TIP3   OH233346   5.495   5.710   0.798 -0.3593  0.2543  0.5557
 2412TIP3    H133347   5.520   5.744   0.884  0.3472 -0.1541  0.5206
 2412TIP3    H233348   5.572   5.725   0.744  0.7021 -2.9053  0.9593
 2413TIP3   OH233349   7.408   3.012   7.607 -0.5287  0.3213  0.0595
 2413TIP3    H133350   7.424   3.056   7.523  2.8363  0.1713  0.4545
 2413TIP3    H233351   7.365   3.078   7.660 -0.7138  1.1826 -1.1081
 2414TIP3   OH233352   3.629   7.612   6.966 -0.8678  1.0918 -0.0497
 2414TIP3    H133353   3.690   7.670   7.011  0.4421 -1.3967  1.5943
 2414TIP3    H233354   3.684   7.562   6.905 -1.3289 -0.6234  0.8767
 2415TIP3   OH233355   7.744   7.980   0.928  0.6602 -0.3652 -0.8359
 2415TIP3    H133356   7.682   7.956   0.859  0.4633  2.0611 -1.5946
 2415TIP3    H233357   7.703   7.948   1.008  0.0802 -1.7593 -1.6412
 2416TIP3   OH233358   6.530   5.058   6.892 -0.5542  0.7261  0.2506
 2416TIP3    H133359   6.548   4.973   6.852  1.4877 -0.0459  2.5790
 2416TIP3    H233360   6.475   5.104   6.828 -0.6123 -1.8118 -1.6540
 2417TIP3   OH233361   4.800   4.283   1.054 -0.8499  0.2573  0.5292
 2417TIP3    H133362   4.843   4.198   1.042  1.6241  1.5332 -0.4752
 2417TIP3    H233363   4.806   4.300   1.148 -1.8325 -0.8498  0.8200
 2418TIP3   OH233364   4.426   5.146   1.608 -0.0234 -0.0054  0.3702
 2418TIP3    H133365   4.394   5.119   1.521  0.8999  1.1076 -0.3440
 2418TIP3    H233366   4.349   5.140   1.664 -1.7033  2.8860 -1.3410
 2419TIP3   OH233367   5.713   4.541   5.739 -0.4300  0.2490 -0.3573
 2419TIP3    H133368   5.710   4.447   5.760  4.5583  0.0762  0.7254
 2419TIP3    H233369   5.682   4.584   5.819 -1.0875 -0.4377 -0.2285
 2420TIP3   OH233370   3.972   7.469   0.747 -0.2120  0.3980  0.0734
 2420TIP3    H133371   3.928   7.457   0.663 -1.2966  0.5273  0.6102
 2420TIP3    H233372   4.011   7.384   0.767  1.4884  0.7774 -1.3244
 2421TIP3   OH233373   5.590   6.771   1.653  0.3775  0.0388 -0.1259
 2421TIP3    H133374   5.565   6.765   1.745  1.6996  0.2379  0.2535
 2421TIP3    H233375   5.521   6.826   1.614 -1.0544 -1.3210  0.3918
 2422TIP3   OH233376   4.680   3.517   5.720  0.6208  0.0126 -0.4288
 2422TIP3    H133377   4.747   3.473   5.668  0.0825 -0.6259 -0.6015
 2422TIP3    H233378   4.641   3.581   5.659 -1.3986 -2.1138 -1.5393
 2423TIP3   OH233379   7.727   0.650   0.394 -0.2514 -0.5544 -0.1690
 2423TIP3    H133380   7.720   0.726   0.336 -0.0863  0.9028  1.6236
 2423TIP3    H233381   7.804   0.668   0.448 -0.1942 -2.0188  0.2803
 2424TIP3   OH233382   6.745   7.151   2.041 -0.2727 -0.0196 -0.4207
 2424TIP3    H133383   6.692   7.071   2.039  0.7524 -0.8025  1.1553
 2424TIP3    H233384   6.802   7.143   1.965 -3.1965  1.5190 -2.9996
 2425TIP3   OH233385   6.073   6.952   5.739 -0.4792 -0.0783  0.8855
 2425TIP3    H133386   6.125   6.947   5.659  0.4345 -0.2256  1.4715
 2425TIP3    H233387   6.033   6.865   5.747 -1.2275  0.1908  0.1730
 2426TIP3   OH233388   2.703   3.799   1.170 -0.5219  0.2446 -0.5748
 2426TIP3    H133389   2.718   3.770   1.080 -1.2167  0.1579 -0.6647
 2426TIP3    H233390   2.744   3.886   1.174  0.5235 -0.2277 -0.6388
 2427TIP3   OH233391   1.746   2.688   7.517 -0.7773  0.4250  0.7296
 2427TIP3    H133392   1.826   2.704   7.468 -1.2234 -3.8635 -2.0022
 2427TIP3    H233393   1.691   2.764   7.499  1.6539  2.2370  0.4640
 2428TIP3   OH233394   6.586   2.724   6.563 -0.2618  0.4014  0.0949
 2428TIP3    H133395   6.540   2.807   6.546 -0.2776  0.8942  2.2314
 2428TIP3    H233396   6.525   2.673   6.615  0.2468 -0.4522 -0.1223
 2429TIP3   OH233397   3.422   3.682   7.472 -0.0832  0.3919 -0.2744
 2429TIP3    H133398   3.496   3.671   7.531 -0.1789 -2.4459 -0.5854
 2429TIP3    H233399   3.347   3.695   7.531  0.3527  1.4914  0.0748
 2430TIP3   OH233400   4.262   3.676   0.431  0.1137 -0.1988 -0.1627
 2430TIP3    H133401   4.319   3.639   0.364  1.2664 -0.3884  0.8940
 2430TIP3    H233402   4.179   3.630   0.419  0.7465 -1.2886 -0.5243
 2431TIP3   OH233403   5.384   4.861   7.226  0.5596 -0.3974  0.3177
 2431TIP3    H133404   5.448   4.931   7.237 -0.4327  0.5701  0.1713
 2431TIP3    H233405   5.325   4.870   7.302 -0.3030 -0.2537 -0.3498
 2432TIP3   OH233406   6.586   1.441   0.912 -0.4575 -0.0461 -0.0249
 2432TIP3    H133407   6.619   1.381   0.845  0.1581  0.9227 -0.6135
 2432TIP3    H233408   6.637   1.421   0.990 -0.7087 -0.7202 -0.0261
 2433TIP3   OH233409   0.257   2.146   6.341 -0.1660 -0.2802 -0.0719
 2433TIP3    H133410   0.250   2.152   6.436  0.6169  1.4392 -0.0923
 2433TIP3    H233411   0.343   2.108   6.325  0.4343  1.0453 -0.0909
 2434TIP3   OH233412   7.065   1.549   2.368  0.3217 -0.0193 -0.4491
 2434TIP3    H133413   7.094   1.637   2.344  3.6319 -0.7718  0.1901
 2434TIP3    H233414   7.123   1.490   2.318 -1.6039 -1.8659 -0.6560
 2435TIP3   OH233415   2.066   7.730   7.283  0.5551 -0.5194  0.1280
 2435TIP3    H133416   2.056   7.651   7.231  1.6099 -0.3333 -0.4036
 2435TIP3    H233417   2.128   7.705   7.353  0.8108 -0.2027  0.0187
 2436TIP3   OH233418   4.710   4.918   7.840  0.1801  0.4880  0.4950
 2436TIP3    H133419   4.706   4.826   7.868  0.4879  0.6273  0.9966
 2436TIP3    H233420   4.803   4.936   7.828  0.1457  0.8433  0.7512
 2437TIP3   OH233421   7.623   5.959   0.701 -0.0554 -0.9092 -0.1866
 2437TIP3    H133422   7.663   5.934   0.784  0.3638  2.5502  0.8150
 2437TIP3    H233423   7.682   5.925   0.634  0.5076 -2.2903  0.9516
 2438TIP3   OH233424   5.365   3.715   5.789 -0.5231  0.4936 -0.1377
 2438TIP3    H133425   5.320   3.631   5.803  0.4291 -0.2976 -1.6189
 2438TIP3    H233426   5.294   3.777   5.774 -1.2162 -0.2919 -0.2239
 2439TIP3   OH233427   0.137   3.593   7.562  0.1908  0.0924 -0.0018
 2439TIP3    H133428   0.049   3.619   7.587 -0.3000 -1.4008 -0.0386
 2439TIP3    H233429   0.158   3.646   7.486 -0.6571  0.5044  0.0460
 2440TIP3   OH233430   0.909   6.952   1.907 -0.7027  0.2467 -0.0775
 2440TIP3    H133431   0.840   6.887   1.894 -1.9154  1.3371  0.6313
 2440TIP3    H233432   0.883   6.999   1.986  1.1338  0.3772  0.4917
 2441TIP3   OH233433   4.989   4.412   7.933 -0.3132 -0.4125  0.0474
 2441TIP3    H133434   4.969   4.499   7.897 -2.6068 -1.0282 -0.3554
 2441TIP3    H233435   4.939   4.408   8.015 -1.2380 -1.7612 -0.5496
 2442TIP3   OH233436   3.607   4.440   0.942 -0.1453  0.0223 -0.0732
 2442TIP3    H133437   3.694   4.479   0.948  0.0600 -0.0717 -1.7878
 2442TIP3    H233438   3.554   4.489   1.006  0.6633  1.5389 -0.5053
 2443TIP3   OH233439   3.565   4.410   1.608 -0.5643 -0.0866 -0.2145
 2443TIP3    H133440   3.535   4.466   1.680 -1.5835  2.6997 -2.6159
 2443TIP3    H233441   3.485   4.376   1.569 -0.1852  0.4322 -1.4920
 2444TIP3   OH233442   7.422   7.901   0.003  0.0255  0.3064  0.0606
 2444TIP3    H133443   7.370   7.830  -0.035 -0.7460  0.1199  1.4081
 2444TIP3    H233444   7.507   7.861   0.022 -0.4272 -0.2982  0.8786
 2445TIP3   OH233445   1.621   5.339   1.392 -0.0171 -0.0164  0.2533
 2445TIP3    H133446   1.641   5.271   1.328 -2.1104 -0.1609 -0.3108
 2445TIP3    H233447   1.700   5.394   1.394  0.8105 -1.0944 -1.0172
 2446TIP3   OH233448   5.095   2.441   7.375 -0.1871  0.2048 -0.4011
 2446TIP3    H133449   5.048   2.480   7.302 -1.0737 -1.8559 -0.9814
 2446TIP3    H233450   5.184   2.428   7.342  1.2196  4.6618  0.8910
 2447TIP3   OH233451   4.457   0.940   5.531 -0.7141  0.0779  0.2911
 2447TIP3    H133452   4.415   0.904   5.452  0.7840 -1.0260 -0.0553
 2447TIP3    H233453   4.385   0.960   5.590 -2.1854  3.8547 -2.4317
 2448TIP3   OH233454   5.486   2.611   7.332  0.4977 -0.2870  0.2903
 2448TIP3    H133455   5.494   2.558   7.411 -0.0852 -0.9089 -0.0517
 2448TIP3    H233456   5.576   2.633   7.308  0.9145 -2.5021 -0.4470
 2449TIP3   OH233457   1.346   2.047   0.112 -0.4974 -0.2569 -0.3298
 2449TIP3    H133458   1.440   2.064   0.103 -0.1784 -0.5881  1.8504
 2449TIP3    H233459   1.311   2.125   0.155 -0.8286 -0.9323  0.6736
 2450TIP3   OH233460   3.273   7.731   6.754  0.0571 -0.2090  0.0476
 2450TIP3    H133461   3.190   7.736   6.801 -0.6502 -0.9745 -1.0750
 2450TIP3    H233462   3.336   7.774   6.812 -1.0839  0.2539  0.9844
 2451TIP3   OH233463   6.514   3.805   7.265 -0.0670  0.0129  0.3232
 2451TIP3    H133464   6.440   3.784   7.323 -0.7190 -1.1407 -0.8581
 2451TIP3    H233465   6.474   3.849   7.190 -0.2165 -3.5689 -1.9778
 2452TIP3   OH233466   1.782   5.384   7.359 -0.3436 -0.0251 -0.2733
 2452TIP3    H133467   1.744   5.458   7.405 -2.8770 -0.2049 -1.9079
 2452TIP3    H233468   1.836   5.340   7.424 -3.0994  0.1727  2.3331
 2453TIP3   OH233469   3.485   4.614   5.928  0.5826 -0.3796  0.1381
 2453TIP3    H133470   3.410   4.603   5.871 -0.1304 -1.5170  1.2351
 2453TIP3    H233471   3.449   4.655   6.007  1.0884 -1.0079  0.7021
 2454TIP3   OH233472   4.536   1.990   0.606 -0.2520  0.2222  0.0208
 2454TIP3    H133473   4.469   1.979   0.674 -0.7744  1.7574 -0.1993
 2454TIP3    H233474   4.595   1.915   0.618  0.1984  0.9045  2.7640
 2455TIP3   OH233475   2.751   5.038   7.938  0.4955  0.9171  0.3079
 2455TIP3    H133476   2.847   5.032   7.940  0.5021  1.2056  2.0000
 2455TIP3    H233477   2.723   4.998   8.020 -0.9769 -0.8905 -0.9907
 2456TIP3   OH233478   7.431   6.480   7.853  0.2177  0.0900  0.3167
 2456TIP3    H133479   7.486   6.555   7.873 -0.8518  0.4011  2.3192
 2456TIP3    H233480   7.467   6.445   7.772  0.6400  2.8369 -0.7849
 2457TIP3   OH233481   0.900   0.159   0.120 -0.3035 -0.4572  0.7424
 2457TIP3    H133482   0.865   0.197   0.200 -3.4900 -0.0245 -0.7095
 2457TIP3    H233483   0.910   0.066   0.140 -2.1899 -0.5645  1.3544
 2458TIP3   OH233484   4.423   1.143   6.432  0.2297 -0.0099  0.0296
 2458TIP3    H133485   4.507   1.101   6.450  0.9648  1.7887  1.0748
 2458TIP3    H233486   4.436   1.188   6.349 -0.2316 -0.9395 -0.5729
 2459TIP3   OH233487   3.326   5.943   1.330  0.1863  0.2390  0.2945
 2459TIP3    H133488   3.416   5.949   1.298  0.4989 -0.1480  1.0724
 2459TIP3    H233489   3.281   6.017   1.289  0.4586 -0.4624 -1.3368
 2460TIP3   OH233490   5.416   5.379   1.564 -0.5497  0.2442  0.0101
 2460TIP3    H133491   5.420   5.285   1.576 -1.5667  0.3077  0.9293
 2460TIP3    H233492   5.424   5.415   1.652  1.1717  1.0933 -0.4357
 2461TIP3   OH233493   1.862   0.620   6.242  0.0344 -0.1559  0.5094
 2461TIP3    H133494   1.825   0.708   6.250  0.0735 -0.0559 -0.3181
 2461TIP3    H233495   1.854   0.582   6.329 -1.0824  0.2305  0.5888
 2462TIP3   OH233496   3.241   8.089   0.796  0.1264 -0.1849 -0.0969
 2462TIP3    H133497   3.155   8.049   0.799 -0.0001  0.1402  1.5876
 2462TIP3    H233498   3.244   8.146   0.873  1.4710  0.5782 -0.6766
 2463TIP3   OH233499   3.099   7.467   6.627  0.3580  0.1113  0.3990
 2463TIP3    H133500   3.116   7.560   6.613 -0.5029  0.3539  0.9361
 2463TIP3    H233501   3.103   7.455   6.722  0.3646 -0.3824  0.3408
 2464TIP3   OH233502   4.240   3.959   0.639 -0.1972 -0.2887 -0.3792
 2464TIP3    H133503   4.279   3.938   0.554  0.4868 -1.2551  0.1532
 2464TIP3    H233504   4.251   3.880   0.691  0.9417  0.8265  1.1751
 2465TIP3   OH233505   5.075   7.261   0.040  0.1874  0.4284  0.1019
 2465TIP3    H133506   5.118   7.316   0.106  0.1329 -0.0646  0.5513
 2465TIP3    H233507   5.038   7.324  -0.022  1.0183  0.8775  0.0402
 2466TIP3   OH233508   8.078   6.907   0.763 -0.0382  0.2322 -0.1316
 2466TIP3    H133509   7.987   6.936   0.765 -0.1909 -0.2605  0.0357
 2466TIP3    H233510   8.117   6.945   0.841 -0.2078  0.0871  0.0235
 2467TIP3   OH233511   4.951   5.319   7.233 -0.6291 -0.4193  0.1350
 2467TIP3    H133512   4.897   5.323   7.313  1.3280  1.3395  1.4704
 2467TIP3    H233513   4.972   5.410   7.214  0.2084 -0.9354 -1.5367
 2468TIP3   OH233514   1.751   7.771   5.523  0.7538 -0.2227 -0.2594
 2468TIP3    H133515   1.739   7.861   5.553  0.5443 -0.1268 -0.6275
 2468TIP3    H233516   1.846   7.756   5.531  0.5625 -0.7289  1.9287
 2469TIP3   OH233517   4.729   0.596   5.051  0.0451 -0.2329 -0.6523
 2469TIP3    H133518   4.643   0.576   5.088 -1.0052  0.0972 -2.7711
 2469TIP3    H233519   4.752   0.681   5.088 -0.1770 -0.6577  0.5023
 2470TIP3   OH233520   3.241   7.607   7.704 -0.4921 -0.6499  0.0060
 2470TIP3    H133521   3.203   7.689   7.674 -0.0341 -0.6948 -0.7361
 2470TIP3    H233522   3.264   7.623   7.795  0.1473  0.2491 -0.3020
 2471TIP3   OH233523   1.874   1.041   6.511  0.1765  0.4768  0.1479
 2471TIP3    H133524   1.835   1.108   6.454  0.3918  2.2279  1.9423
 2471TIP3    H233525   1.968   1.049   6.496  0.1995  0.5517  0.3295
 2472TIP3   OH233526   2.399   1.612   7.575  0.5391 -0.5753  0.8972
 2472TIP3    H133527   2.445   1.533   7.600  0.3896 -1.7508 -2.1612
 2472TIP3    H233528   2.333   1.583   7.513 -0.4718  1.8018  0.7483
 2473TIP3   OH233529   3.038   4.742   6.478  0.4457 -0.0765 -0.5938
 2473TIP3    H133530   2.980   4.816   6.496  0.9828  0.1384  0.3335
 2473TIP3    H233531   2.981   4.675   6.441 -0.1209  0.6512 -1.0697
 2474TIP3   OH233532   0.242   2.418   6.250 -0.2777  0.0905 -0.0669
 2474TIP3    H133533   0.216   2.327   6.266  1.9100 -0.5962 -0.0745
 2474TIP3    H233534   0.176   2.452   6.189 -0.5317 -1.8325 -0.9242
 2475TIP3   OH233535   3.062   1.310   6.578 -0.0836  0.6941  0.4349
 2475TIP3    H133536   3.038   1.220   6.557  0.0519  0.3102  1.8385
 2475TIP3    H233537   3.055   1.357   6.495 -2.0525 -0.1889  0.0492
 2476TIP3   OH233538   1.184   3.541   7.371  0.3526  0.1889 -0.1340
 2476TIP3    H133539   1.194   3.468   7.432  2.6089 -0.3880 -1.0838
 2476TIP3    H233540   1.208   3.618   7.423  0.2029 -0.0278  0.2598
 2477TIP3   OH233541   3.691   1.161   7.143  0.1133 -0.2397  0.9712
 2477TIP3    H133542   3.653   1.176   7.056 -0.0713 -0.7108  0.9688
 2477TIP3    H233543   3.712   1.068   7.144  1.2125 -0.0048  1.0002
 2478TIP3   OH233544   1.780   7.793   1.048 -0.1884  0.2983  0.6289
 2478TIP3    H133545   1.695   7.827   1.021 -0.1949 -0.6602 -0.6354
 2478TIP3    H233546   1.843   7.851   1.005 -0.2055  0.2891  0.5907
 2479TIP3   OH233547   1.315   0.317   5.876 -0.0911 -0.3730 -0.1789
 2479TIP3    H133548   1.339   0.225   5.860 -1.1259 -0.5914 -0.5503
 2479TIP3    H233549   1.220   0.316   5.888 -0.1784  0.7108 -0.6356
 2480TIP3   OH233550   0.830   5.460   1.245  0.3303  0.0487  0.3344
 2480TIP3    H133551   0.891   5.428   1.312  0.6991  1.4713  0.7139
 2480TIP3    H233552   0.832   5.555   1.255  1.6560  0.4650 -2.7719
 2481TIP3   OH233553   3.227   4.425   7.251 -0.1088 -0.4496  0.2923
 2481TIP3    H133554   3.247   4.367   7.178  1.5798  1.0692 -0.5526
 2481TIP3    H233555   3.188   4.369   7.318 -1.1454 -1.9877 -1.5344
 2482TIP3   OH233556   2.518   3.418   6.802 -0.1303 -0.0804  0.0147
 2482TIP3    H133557   2.578   3.422   6.728  0.4701 -3.0305  0.2462
 2482TIP3    H233558   2.452   3.354   6.777 -0.0354 -1.0028  1.8802
 2483TIP3   OH233559   2.538   3.662   2.297  0.4957 -0.0777  0.1877
 2483TIP3    H133560   2.563   3.753   2.309  0.8395  0.0158 -1.1007
 2483TIP3    H233561   2.448   3.657   2.330 -0.3532  1.2531 -1.7377
 2484TIP3   OH233562   4.683   0.235   7.705  0.0354 -0.1208 -0.1700
 2484TIP3    H133563   4.600   0.281   7.715  0.1451 -0.4997  4.0071
 2484TIP3    H233564   4.660   0.152   7.663 -1.0507  1.1830 -2.2945
 2485TIP3   OH233565   1.181   0.439   0.397  0.2168 -0.4443 -0.3846
 2485TIP3    H133566   1.106   0.464   0.452  0.5279 -0.6844  0.1587
 2485TIP3    H233567   1.143   0.425   0.311 -0.5905 -1.7715  0.1506
 2486TIP3   OH233568   6.532   3.575   0.232 -0.0677 -0.1996  0.3562
 2486TIP3    H133569   6.627   3.582   0.244 -0.3639  1.7526  1.8575
 2486TIP3    H233570   6.504   3.512   0.299  0.1524 -0.9790 -0.2565
 2487TIP3   OH233571   2.317   0.686   0.051  0.0760 -0.4459 -0.0874
 2487TIP3    H133572   2.401   0.695   0.006  0.4534  1.5273  0.9237
 2487TIP3    H233573   2.254   0.670  -0.020  1.2001 -1.4619 -0.9019
 2488TIP3   OH233574   2.532   0.479   1.376  0.0976  0.6783 -0.4070
 2488TIP3    H133575   2.438   0.488   1.363 -0.2005 -1.7527 -0.5499
 2488TIP3    H233576   2.553   0.540   1.447 -1.7710  0.5754  0.2990
 2489TIP3   OH233577   1.009   2.485   0.508 -0.3677  0.1910 -0.0501
 2489TIP3    H133578   1.043   2.396   0.520 -0.2545  0.3315  0.7129
 2489TIP3    H233579   1.033   2.508   0.418 -0.3117 -0.5090 -0.2190
 2490TIP3   OH233580   6.301   7.605   0.085  0.5411  0.4761  0.3943
 2490TIP3    H133581   6.296   7.641   0.173 -0.8452 -0.1091  0.5667
 2490TIP3    H233582   6.344   7.674   0.034  1.4605  0.7743  1.5284
 2491TIP3   OH233583   6.602   6.149   0.226  0.1070  0.2010  0.8336
 2491TIP3    H133584   6.667   6.131   0.293 -1.6958 -3.7002  1.7692
 2491TIP3    H233585   6.652   6.154   0.144  1.6601 -2.8716  1.4827
 2492TIP3   OH233586   7.435   1.379   1.687  0.2247  0.0352 -0.6512
 2492TIP3    H133587   7.411   1.412   1.774  1.2945  0.8194 -0.6309
 2492TIP3    H233588   7.509   1.320   1.703  0.4821  0.2479 -1.0381
 2493TIP3   OH233589   4.553   1.138   6.799 -0.1661 -0.0794 -0.7173
 2493TIP3    H133590   4.519   1.054   6.767  1.3372 -0.3809 -1.5862
 2493TIP3    H233591   4.625   1.115   6.857 -0.6341  0.5892  0.1497
 2494TIP3   OH233592   5.986   7.643   2.451  0.5195 -1.1852 -0.1790
 2494TIP3    H133593   6.016   7.732   2.472  0.4594 -1.3318  0.5508
 2494TIP3    H233594   6.038   7.586   2.508  0.3111 -1.5946 -0.3963
 2495TIP3   OH233595   3.561   5.744   0.928  0.1136 -0.2567 -0.2631
 2495TIP3    H133596   3.582   5.835   0.946 -1.3845  0.0878 -0.1282
 2495TIP3    H233597   3.645   5.699   0.927  0.7278  0.8082  1.3963
 2496TIP3   OH233598   4.535   6.105   2.109  0.2981  0.1855  0.3261
 2496TIP3    H133599   4.525   6.063   2.024  1.2237  0.6324 -0.0190
 2496TIP3    H233600   4.629   6.100   2.127  0.3341  1.4173  0.6165
 2497TIP3   OH233601   5.357   0.465   0.247 -0.3599 -0.4392  0.3464
 2497TIP3    H133602   5.388   0.483   0.159 -0.4613 -0.0147  0.3996
 2497TIP3    H233603   5.436   0.440   0.296 -0.1339  0.3872  0.4142
 2498TIP3   OH233604   4.747   7.266   0.496  0.0130 -0.1415 -0.0236
 2498TIP3    H133605   4.724   7.173   0.505 -0.4899 -0.0214 -0.0435
 2498TIP3    H233606   4.806   7.283   0.570  1.7625 -0.9792 -1.1605
 2499TIP3   OH233607   2.361   5.273   6.459  0.0572  0.1313 -0.1061
 2499TIP3    H133608   2.328   5.333   6.393 -0.6797 -1.0166 -0.8096
 2499TIP3    H233609   2.287   5.214   6.477  1.2187 -1.5250 -0.5758
 2500TIP3   OH233610   0.696   5.455   0.256  0.2837 -0.0264 -0.0341
 2500TIP3    H133611   0.672   5.389   0.321 -0.3475  0.9154  0.7027
 2500TIP3    H233612   0.645   5.432   0.178 -1.3258  0.6291  0.7950
 2501TIP3   OH233613   3.480   4.921   6.601 -0.1428  0.2675  0.1226
 2501TIP3    H133614   3.508   4.854   6.539 -0.1294  1.3566 -1.1016
 2501TIP3    H233615   3.414   4.971   6.553  0.7586  1.9015  0.5121
 2502TIP3   OH233616   5.615   2.842   2.350  0.4987 -0.1700  0.1265
 2502TIP3    H133617   5.562   2.775   2.393  1.0381 -1.2733 -0.8495
 2502TIP3    H233618   5.556   2.880   2.285  0.4608 -0.3497  0.0546
 2503TIP3   OH233619   6.489   1.851   1.204 -0.4433  0.4440 -0.3453
 2503TIP3    H133620   6.398   1.857   1.232  0.0824  1.0758  1.3490
 2503TIP3    H233621   6.537   1.905   1.267  1.0000  0.8175 -1.7084
 2504TIP3   OH233622   7.182   5.805   6.323 -0.0031  0.0414 -0.2689
 2504TIP3    H133623   7.140   5.868   6.265 -2.6896 -1.6781 -0.3884
 2504TIP3    H233624   7.265   5.783   6.281 -1.4979 -0.5622 -3.1273
 2505TIP3   OH233625   0.812   3.702   7.796 -0.2784 -0.1772  0.6808
 2505TIP3    H133626   0.835   3.747   7.878 -0.1843 -0.9050  1.0605
 2505TIP3    H233627   0.809   3.609   7.819 -0.0562 -0.4103 -0.1926
 2506TIP3   OH233628   4.143   0.558   1.640  0.0175 -0.2992 -0.3119
 2506TIP3    H133629   4.226   0.518   1.665 -0.2089 -0.0542  0.9377
 2506TIP3    H233630   4.144   0.644   1.682 -1.1091 -0.5314  0.2419
 2507TIP3   OH233631   7.499   2.187   6.840  0.6689  0.1398 -0.1041
 2507TIP3    H133632   7.564   2.163   6.774  0.5711 -1.3186  0.2834
 2507TIP3    H233633   7.525   2.137   6.918 -2.4727 -2.9259 -0.7513
 2508TIP3   OH233634   6.641   3.516   0.801 -0.2280  0.6644 -0.1373
 2508TIP3    H133635   6.660   3.485   0.713  0.7766 -1.2040  0.6758
 2508TIP3    H233636   6.548   3.536   0.800 -0.1152  1.2166 -1.7622
 2509TIP3   OH233637   5.473   2.307   0.501  0.0046  0.0494 -0.0027
 2509TIP3    H133638   5.388   2.346   0.523  0.5218  0.7436  0.8318
 2509TIP3    H233639   5.456   2.256   0.421 -1.3536 -0.4129  0.5478
 2510TIP3   OH233640   5.637   7.143   7.732 -0.2810 -0.5064  0.1241
 2510TIP3    H133641   5.724   7.142   7.773  0.3334 -1.3848 -1.1361
 2510TIP3    H233642   5.654   7.134   7.638 -1.5482  3.0576 -0.6132
 2511TIP3   OH233643   3.903   6.855   7.911  0.1804  0.5387 -0.4610
 2511TIP3    H133644   3.843   6.783   7.890 -0.1633  1.0464 -1.2886
 2511TIP3    H233645   3.886   6.921   7.843  0.2328  1.5564  0.4767
 2512TIP3   OH233646   4.723   4.615   6.193  0.0971  0.3184  0.3301
 2512TIP3    H133647   4.676   4.623   6.276  1.3205 -1.5551  1.2672
 2512TIP3    H233648   4.776   4.695   6.189  0.1736  0.3566  1.4864
 2513TIP3   OH233649   6.989   5.515   0.247  0.0408 -0.1681 -0.1665
 2513TIP3    H133650   6.951   5.431   0.221 -0.3168 -0.7343  1.9830
 2513TIP3    H233651   7.058   5.531   0.183 -0.4276 -1.7056 -1.0990
 2514TIP3   OH233652   7.551   0.754   1.185  0.6760  0.4037  0.5235
 2514TIP3    H133653   7.545   0.846   1.209  2.4919  0.7860 -0.3062
 2514TIP3    H233654   7.490   0.745   1.111 -1.8479  0.1511  2.5006
 2515TIP3   OH233655   0.273   6.352   0.023  0.4805  0.0141  0.0495
 2515TIP3    H133656   0.325   6.339   0.102 -0.4618  0.9389  0.8394
 2515TIP3    H233657   0.198   6.404   0.051 -1.5992 -2.3286 -0.7627
 2516TIP3   OH233658   6.729   1.049   5.939 -0.0944 -0.1190 -0.5284
 2516TIP3    H133659   6.720   1.020   5.848 -2.7402 -2.4841  0.3299
 2516TIP3    H233660   6.821   1.036   5.960  0.4470 -0.1318 -2.6597
 2517TIP3   OH233661   2.079   7.271   6.026 -0.1229 -0.2184 -0.3738
 2517TIP3    H133662   2.131   7.213   5.970 -0.6727  0.1514 -1.3002
 2517TIP3    H233663   2.128   7.353   6.028  0.9862 -0.8786  1.4664
 2518TIP3   OH233664   2.802   4.609   6.372  0.0337 -0.3615  0.2619
 2518TIP3    H133665   2.756   4.541   6.322  1.8972 -0.9058 -0.7950
 2518TIP3    H233666   2.791   4.688   6.319  2.0375 -0.9453 -1.1286
 2519TIP3   OH233667   1.930   5.774   0.759  0.4660 -0.0750 -0.0798
 2519TIP3    H133668   2.014   5.735   0.784 -0.2707 -1.4295  0.3824
 2519TIP3    H233669   1.865   5.707   0.782 -0.5674  0.0723 -2.3706
 2520TIP3   OH233670   0.290   6.100   7.901  0.0128  0.0465  0.0344
 2520TIP3    H133671   0.317   6.192   7.899 -1.6012  0.5964  1.2756
 2520TIP3    H233672   0.196   6.103   7.918  0.1275 -1.8717  1.3116
 2521TIP3   OH233673   4.058   7.526   7.246  0.3875 -0.2375  0.0525
 2521TIP3    H133674   4.046   7.493   7.335 -1.2613 -0.4911 -0.2414
 2521TIP3    H233675   4.137   7.481   7.215 -0.3011 -1.8891  0.5998
 2522TIP3   OH233676   5.256   7.164   2.638  0.6385 -0.3132 -0.5044
 2522TIP3    H133677   5.300   7.239   2.596  3.2210 -0.2298  2.0250
 2522TIP3    H233678   5.293   7.087   2.594  0.2872 -0.1804 -1.0458
 2523TIP3   OH233679   0.496   1.770   1.648 -0.4796 -0.4770  0.1401
 2523TIP3    H133680   0.589   1.791   1.649 -0.7541  0.8167  0.6883
 2523TIP3    H233681   0.452   1.853   1.631 -1.5025 -1.2765 -1.3646
 2524TIP3   OH233682   7.633   2.643   2.675 -0.0205 -0.2505  0.2272
 2524TIP3    H133683   7.586   2.658   2.593  0.9274 -0.0389 -0.2874
 2524TIP3    H233684   7.658   2.731   2.705 -0.8504 -0.2727  1.0570
 2525TIP3   OH233685   1.217   5.908   1.361  0.0958 -0.4367 -0.6770
 2525TIP3    H133686   1.140   5.912   1.418  0.3642 -2.9907 -0.0061
 2525TIP3    H233687   1.224   5.995   1.323 -1.4128  0.7098  1.4964
 2526TIP3   OH233688   3.079   0.470   5.670  0.0304  0.4724 -0.1130
 2526TIP3    H133689   3.143   0.531   5.706 -0.8393  0.5840  1.3058
 2526TIP3    H233690   2.999   0.486   5.720 -0.9995  0.0527 -1.5755
 2527TIP3   OH233691   5.644   1.917   5.644  0.0797 -0.2449 -0.4427
 2527TIP3    H133692   5.725   1.964   5.659 -1.5258  2.9424 -0.8096
 2527TIP3    H233693   5.621   1.937   5.553 -1.3968 -0.5328 -0.1668
 2528TIP3   OH233694   5.231   7.227   5.818 -0.2550  0.6234 -0.5675
 2528TIP3    H133695   5.263   7.291   5.881 -0.3498 -0.2026  0.3520
 2528TIP3    H233696   5.156   7.269   5.777 -1.5522  0.4119  1.4226
 2529TIP3   OH233697   2.942   4.620   7.465  0.0394 -0.8986 -0.1495
 2529TIP3    H133698   2.967   4.546   7.520 -1.7067 -0.4881  1.3012
 2529TIP3    H233699   3.011   4.685   7.480 -0.2352 -0.9091  1.3911
 2530TIP3   OH233700   3.740   3.425   0.828 -0.7378 -0.9428 -0.5204
 2530TIP3    H133701   3.722   3.444   0.920  1.3514  0.6847 -0.3940
 2530TIP3    H233702   3.690   3.491   0.780  1.0243  0.5630 -0.3610
 2531TIP3   OH233703   1.199   7.210   6.771 -0.2372 -0.5263 -0.1552
 2531TIP3    H133704   1.244   7.213   6.856  1.2025 -0.1322 -0.8930
 2531TIP3    H233705   1.268   7.187   6.709 -0.7018  1.6252 -1.5702
 2532TIP3   OH233706   1.821   4.688   1.728 -0.1721  0.2045  0.8183
 2532TIP3    H133707   1.843   4.780   1.740  1.4158 -0.0416  0.0076
 2532TIP3    H233708   1.726   4.687   1.716 -0.2364  1.7021  1.1117
 2533TIP3   OH233709   4.468   5.261   6.139  0.1531 -0.3199  0.8609
 2533TIP3    H133710   4.436   5.351   6.135 -1.4446 -0.9111 -0.6083
 2533TIP3    H233711   4.561   5.269   6.163  0.0233  1.6855  0.8103
 2534TIP3   OH233712   2.543   7.590   5.158 -0.6361 -0.3675  0.3478
 2534TIP3    H133713   2.568   7.500   5.136  1.5206  0.8931 -3.2218
 2534TIP3    H233714   2.621   7.628   5.196 -1.2307  0.2591  0.9571
 2535TIP3   OH233715   4.815   2.647   0.003 -0.5313  0.0836  0.5508
 2535TIP3    H133716   4.857   2.677  -0.078 -1.1674 -2.6344 -0.8878
 2535TIP3    H233717   4.748   2.713   0.021  0.2816  1.2675 -0.5584
 2536TIP3   OH233718   1.375   6.599   6.849  0.1697  0.2497  0.3145
 2536TIP3    H133719   1.294   6.648   6.867 -0.3431 -0.4583 -0.0172
 2536TIP3    H233720   1.431   6.663   6.804 -0.4551  0.5702 -0.0339
 2537TIP3   OH233721   1.368   5.241   0.779  0.0944  0.1690  0.4826
 2537TIP3    H133722   1.278   5.218   0.803 -1.0037  2.6676 -0.8509
 2537TIP3    H233723   1.391   5.179   0.709 -0.7291 -0.2619  0.5902
 2538TIP3   OH233724   2.173   6.968   0.629 -0.2505  0.0283 -0.1646
 2538TIP3    H133725   2.247   6.917   0.597  0.6499  2.2449 -1.8781
 2538TIP3    H233726   2.205   7.011   0.708 -0.1981 -0.1980 -0.0650
 2539TIP3   OH233727   4.697   2.246   1.306 -0.0181  0.5825  0.2687
 2539TIP3    H133728   4.771   2.231   1.247 -1.9010  1.0179 -2.3990
 2539TIP3    H233729   4.671   2.336   1.287 -2.6544 -0.2989 -0.7038
 2540TIP3   OH233730   6.424   1.849   7.465 -0.2693  0.0408  0.1726
 2540TIP3    H133731   6.475   1.814   7.392  0.3779 -0.1151  0.6880
 2540TIP3    H233732   6.346   1.794   7.468  0.4866 -1.0292  0.6334
 2541TIP3   OH233733   1.913   7.852   1.302 -0.5205  0.7271 -0.1895
 2541TIP3    H133734   1.856   7.828   1.230  1.9566 -2.1694 -1.4451
 2541TIP3    H233735   1.985   7.901   1.261  0.1543  0.3664  0.5245
 2542TIP3   OH233736   2.881   5.497   7.481  0.4424 -0.4451  0.2435
 2542TIP3    H133737   2.786   5.491   7.477  0.4416 -1.3087  1.1570
 2542TIP3    H233738   2.905   5.448   7.560  1.6307 -0.1022  0.1180
 2543TIP3   OH233739   4.212   3.480   1.453 -0.4906  0.2454 -0.1030
 2543TIP3    H133740   4.182   3.568   1.430  0.3574  0.3557 -0.8730
 2543TIP3    H233741   4.199   3.474   1.547  1.2163  1.9398  0.3146
 2544TIP3   OH233742   2.755   6.108   0.235  0.3059 -0.0066  0.3499
 2544TIP3    H133743   2.771   6.043   0.305 -2.1410  0.0518  1.0645
 2544TIP3    H233744   2.720   6.184   0.281  2.7280  1.7544 -0.5339
 2545TIP3   OH233745   4.719   8.052   7.089  0.3921 -0.3775 -0.1371
 2545TIP3    H133746   4.624   8.055   7.096  0.3854  0.8814 -0.5484
 2545TIP3    H233747   4.738   7.968   7.047 -0.5934 -0.2487 -0.8622
 2546TIP3   OH233748   1.463   6.326   0.754 -0.5253  0.5454 -0.4093
 2546TIP3    H133749   1.506   6.246   0.785  1.3256  1.1921 -1.1783
 2546TIP3    H233750   1.469   6.387   0.828 -1.6880  0.1032  0.0779
 2547TIP3   OH233751   1.095   2.829   7.205  0.3504  0.5874  0.0746
 2547TIP3    H133752   1.106   2.777   7.284 -0.0601  2.0802  1.1666
 2547TIP3    H233753   1.039   2.902   7.232 -0.8156  0.5114 -1.9002
 2548TIP3   OH233754   0.385   1.808   7.349 -0.0766  0.1888 -0.5149
 2548TIP3    H133755   0.354   1.739   7.408  2.0523  0.8086  1.4921
 2548TIP3    H233756   0.314   1.873   7.347 -0.9617 -0.7537 -0.2149
 2549TIP3   OH233757   2.077   0.527   6.115 -0.3808 -0.2049  0.5491
 2549TIP3    H133758   1.989   0.544   6.147 -0.8281 -0.0178 -0.7270
 2549TIP3    H233759   2.099   0.605   6.063 -0.3418 -1.1418 -0.9157
 2550TIP3   OH233760   2.874   5.619   6.492  0.3610  0.2748 -0.3501
 2550TIP3    H133761   2.840   5.709   6.496 -1.1034 -0.2386 -0.5785
 2550TIP3    H233762   2.796   5.565   6.481  1.0373 -1.1706  1.4270
 2551TIP3   OH233763   6.435   2.345   0.704 -0.2151 -0.1010  0.2027
 2551TIP3    H133764   6.517   2.322   0.661 -0.3506 -1.0914  0.4458
 2551TIP3    H233765   6.403   2.262   0.740 -0.4892  0.5563  1.5537
 2552TIP3   OH233766   6.350   3.319   6.865  0.2602 -0.6775  0.1594
 2552TIP3    H133767   6.384   3.273   6.943  0.2902 -2.0101 -0.6041
 2552TIP3    H233768   6.255   3.317   6.876  0.2470 -1.2048 -0.0054
 2553TIP3   OH233769   1.944   0.339   0.518 -0.2138 -0.0875 -0.6449
 2553TIP3    H133770   1.981   0.409   0.465 -1.4711  0.9378 -0.2338
 2553TIP3    H233771   2.006   0.267   0.510  1.9080  1.5334  0.0495
 2554TIP3   OH233772   5.960   2.163   7.889  0.0084 -0.3567 -0.1433
 2554TIP3    H133773   5.872   2.150   7.923  0.1998 -1.2904  0.0318
 2554TIP3    H233774   6.014   2.098   7.935  0.6793 -0.1691 -0.6362
 2555TIP3   OH233775   7.194   5.390   6.210 -0.3570  1.1894  0.4016
 2555TIP3    H133776   7.233   5.434   6.134  0.1926  0.3291  0.1767
 2555TIP3    H233777   7.113   5.352   6.176  0.9236 -1.0414 -0.3443
 2556TIP3   OH233778   7.889   0.443   0.640  0.2621  0.0455  0.1405
 2556TIP3    H133779   7.873   0.525   0.687 -0.3095  2.8822 -4.3753
 2556TIP3    H233780   7.971   0.410   0.676 -1.0760  0.7550  4.2888
 2557TIP3   OH233781   0.117   3.064   1.340 -0.3767  0.3945 -0.0965
 2557TIP3    H133782   0.112   3.083   1.433 -1.2604  0.3692 -0.1338
 2557TIP3    H233783   0.029   3.080   1.307 -0.3017 -0.4905 -0.7577
 2558TIP3   OH233784   3.633   3.444   7.266 -0.3273 -0.0844 -0.3402
 2558TIP3    H133785   3.651   3.386   7.340 -2.0422 -0.6512 -0.3144
 2558TIP3    H233786   3.715   3.491   7.251  0.5409 -1.1625  0.8456
 2559TIP3   OH233787   0.194   6.723   0.543 -0.5193  0.0971  0.6393
 2559TIP3    H133788   0.206   6.698   0.634  1.1186  1.0430  0.7209
 2559TIP3    H233789   0.204   6.642   0.493 -0.9756 -0.3457  1.2615
 2560TIP3   OH233790   0.981   6.416   6.202 -0.1869 -0.2529 -0.1935
 2560TIP3    H133791   0.988   6.422   6.107  2.2028 -2.0533 -0.2330
 2560TIP3    H233792   0.922   6.488   6.226  0.8770  1.6831 -2.8030
 2561TIP3   OH233793   2.260   4.886   7.917  0.4264  0.1595  0.0567
 2561TIP3    H133794   2.263   4.804   7.966  1.1025  0.0917 -0.0842
 2561TIP3    H233795   2.293   4.952   7.978  4.1291 -0.3737 -1.1121
 2562TIP3   OH233796   5.759   5.746   7.821  0.2044  0.5914 -0.0644
 2562TIP3    H133797   5.835   5.789   7.784 -0.7126  2.7376  0.4006
 2562TIP3    H233798   5.758   5.659   7.781  3.1354  0.3154  0.3002
 2563TIP3   OH233799   2.702   0.060   6.980  0.0142 -0.3041 -0.7444
 2563TIP3    H133800   2.653   0.005   6.919 -1.2930 -0.0974  0.0835
 2563TIP3    H233801   2.726   0.002   7.052 -0.6096 -0.0037 -0.2852
 2564TIP3   OH233802   4.821   3.077   1.096 -0.4258  0.0186 -0.3875
 2564TIP3    H133803   4.759   3.098   1.166 -0.0535 -1.4911  0.4130
 2564TIP3    H233804   4.767   3.038   1.027 -0.1728 -4.3840  1.5653
 2565TIP3   OH233805   0.022   0.308   7.873  0.4486  0.2060 -0.0328
 2565TIP3    H133806   0.070   0.291   7.792  0.4757 -1.5116  0.3082
 2565TIP3    H233807   0.068   0.255   7.939 -0.5530  0.3051  0.7536
 2566TIP3   OH233808   5.702   5.705   0.645  0.0786  0.1658  0.1930
 2566TIP3    H133809   5.734   5.661   0.567  0.6283 -0.5231  0.7905
 2566TIP3    H233810   5.771   5.768   0.667  0.4257 -0.4019  0.7372
 2567TIP3   OH233811   7.007   4.127   1.242 -0.3307  0.2464  0.3746
 2567TIP3    H133812   6.945   4.107   1.172 -1.0414  1.8934  0.4669
 2567TIP3    H233813   7.080   4.170   1.198 -0.7946  1.3166  0.6209
 2568TIP3   OH233814   3.995   6.260   6.908  0.1940 -0.5304 -0.7235
 2568TIP3    H133815   3.976   6.333   6.967  1.0619 -0.7152 -0.1964
 2568TIP3    H233816   3.953   6.184   6.950  1.5017 -0.8194  0.1104
 2569TIP3   OH233817   1.062   1.170   7.044  0.3139  0.0776 -0.3383
 2569TIP3    H133818   1.068   1.184   7.138  1.9872  1.0910 -0.5468
 2569TIP3    H233819   1.115   1.240   7.006 -0.3248 -0.3098 -2.0376
 2570TIP3   OH233820   0.468   4.536   1.219 -0.1757 -0.1658 -1.0773
 2570TIP3    H133821   0.527   4.463   1.237  0.9293  0.2374 -2.7933
 2570TIP3    H233822   0.466   4.586   1.301  2.6447  0.2934 -1.1757
 2571TIP3   OH233823   4.488   4.557   5.808  0.5112 -0.6627 -0.2549
 2571TIP3    H133824   4.464   4.476   5.763 -1.3400  0.6959 -1.8927
 2571TIP3    H233825   4.567   4.586   5.761  0.0326 -0.5247 -0.9926
 2572TIP3   OH233826   3.865   3.108   0.897  0.4146 -0.7333  0.1940
 2572TIP3    H133827   3.941   3.067   0.938 -0.4370 -1.4149  1.1515
 2572TIP3    H233828   3.858   3.193   0.939  2.2995  0.5733 -1.9335
 2573TIP3   OH233829   5.707   3.916   0.974 -0.0874  0.1811 -0.9122
 2573TIP3    H133830   5.781   3.863   0.943 -0.6060 -0.4218 -1.1340
 2573TIP3    H233831   5.688   3.883   1.061  0.2085  0.6627 -0.6606
 2574TIP3   OH233832   1.210   4.977   7.721  0.2810  0.4512  0.8211
 2574TIP3    H133833   1.285   4.976   7.662 -0.8559  0.6168 -0.6733
 2574TIP3    H233834   1.183   4.885   7.728 -2.2302  0.7501 -2.5235
 2575TIP3   OH233835   0.631   1.557   1.543  0.0862 -0.0566  0.2826
 2575TIP3    H133836   0.562   1.620   1.561  1.0757  1.3769 -0.6413
 2575TIP3    H233837   0.589   1.488   1.493 -0.4828  1.4244 -1.3966
 2576TIP3   OH233838   1.356   7.973   0.348 -0.3143  0.1273 -0.3831
 2576TIP3    H133839   1.353   7.890   0.300 -0.3981 -0.7302  1.0321
 2576TIP3    H233840   1.448   7.998   0.347 -0.1615 -0.4138 -0.1287
 2577TIP3   OH233841   3.615   4.945   7.355 -0.2879 -0.3666 -0.3452
 2577TIP3    H133842   3.693   4.936   7.301 -0.3621  2.2380 -1.0431
 2577TIP3    H233843   3.543   4.956   7.292 -0.5488  1.4694  0.1872
 2578TIP3   OH233844   3.147   5.774   6.573  0.0286  0.3893 -0.5016
 2578TIP3    H133845   3.134   5.851   6.517  0.5017  0.8111 -0.0313
 2578TIP3    H233846   3.239   5.751   6.562  0.0491  0.2911 -0.1199
 2579TIP3   OH233847   4.214   7.102   1.228  0.5165 -0.3304 -0.8643
 2579TIP3    H133848   4.244   7.191   1.246  0.5655 -0.0507 -2.2693
 2579TIP3    H233849   4.219   7.058   1.313  0.2356  1.0687 -0.0850
 2580TIP3   OH233850   5.514   3.788   5.565  0.3507 -0.2263 -0.8146
 2580TIP3    H133851   5.473   3.741   5.637  2.5338 -0.2189  0.5337
 2580TIP3    H233852   5.528   3.722   5.498 -0.2435 -0.6002 -0.5756
 2581TIP3   OH233853   4.910   5.590   1.448 -0.0087 -0.1585  0.8184
 2581TIP3    H133854   4.917   5.524   1.517  2.2781 -0.0526  0.7879
 2581TIP3    H233855   4.917   5.540   1.367  0.7663  0.0044  0.7745
 2582TIP3   OH233856   6.533   1.294   1.636 -0.3393  0.3910  0.5956
 2582TIP3    H133857   6.463   1.342   1.680  1.4800 -0.3873  4.8122
 2582TIP3    H233858   6.609   1.353   1.640  0.3023 -0.3506 -0.1803
 2583TIP3   OH233859   2.408   2.404   6.716 -0.0716 -0.1050  0.0284
 2583TIP3    H133860   2.398   2.424   6.809  0.3608  0.6874 -0.0931
 2583TIP3    H233861   2.323   2.367   6.691  0.0862 -1.1542  0.9298
 2584TIP3   OH233862   3.196   8.089   5.216  0.1790 -0.0154 -0.3213
 2584TIP3    H133863   3.133   8.018   5.202 -0.6145  0.4724  0.6603
 2584TIP3    H233864   3.266   8.072   5.152  0.1104 -1.7893  0.0250
 2585TIP3   OH233865   4.670   6.014   6.638 -0.0444 -0.4221 -0.2867
 2585TIP3    H133866   4.705   6.103   6.640 -4.0177  1.3565 -0.5476
 2585TIP3    H233867   4.625   6.004   6.722  0.1066 -2.1404 -0.3738
 2586TIP3   OH233868   1.237   4.524   1.935 -0.1058  0.0163  0.1672
 2586TIP3    H133869   1.245   4.615   1.905 -2.6467  0.2767  0.0294
 2586TIP3    H233870   1.174   4.528   2.007  1.1316 -1.4380  1.3946
 2587TIP3   OH233871   0.462   7.727   6.673  0.2825 -0.1450  0.4792
 2587TIP3    H133872   0.418   7.794   6.620 -0.1916 -1.2764 -0.6376
 2587TIP3    H233873   0.408   7.720   6.752 -0.2231  0.1187  0.1657
 2588TIP3   OH233874   0.942   2.298   0.019 -0.4988  0.1578 -0.0878
 2588TIP3    H133875   0.904   2.227   0.071  3.2777 -0.4278  2.2016
 2588TIP3    H233876   1.017   2.258  -0.025  0.2798  2.2139 -0.7231
 2589TIP3   OH233877   0.022   6.364   1.247  0.2784 -0.6291  0.1437
 2589TIP3    H133878   0.049   6.293   1.189  2.2137 -0.4350  0.7351
 2589TIP3    H233879   0.032   6.329   1.335 -0.9474 -0.3452  0.4137
 2590TIP3   OH233880   3.162   6.602   7.804  0.5563  0.0240  0.4285
 2590TIP3    H133881   3.147   6.613   7.711  2.2137  1.5428  0.2970
 2590TIP3    H233882   3.082   6.634   7.846 -0.8267 -2.0675 -0.4370
 2591TIP3   OH233883   8.041   5.712   0.027  0.5933  0.2709 -0.3500
 2591TIP3    H133884   8.092   5.738  -0.049  0.8343  0.3550 -0.1633
 2591TIP3    H233885   8.064   5.621   0.043  2.9520  1.0653  1.4666
 2592TIP3   OH233886   6.618   5.143   0.759 -0.4970  0.5572  0.1165
 2592TIP3    H133887   6.643   5.210   0.696  2.1355 -1.8739 -1.6699
 2592TIP3    H233888   6.613   5.189   0.843 -0.6314  3.2610 -1.2817
 2593TIP3   OH233889   5.291   0.350   1.689  0.1015 -0.4526 -0.3944
 2593TIP3    H133890   5.336   0.320   1.768 -1.0018 -1.7538 -0.2328
 2593TIP3    H233891   5.235   0.422   1.719  0.3337 -0.3676 -0.1595
 2594TIP3   OH233892   4.889   2.918   0.079 -0.0284  0.5594  0.2144
 2594TIP3    H133893   4.794   2.930   0.083 -0.2176 -0.6527  0.0142
 2594TIP3    H233894   4.910   2.927  -0.014 -0.0978 -0.0422  0.1327
 2595TIP3   OH233895   3.675   7.422   0.835 -0.7629 -0.1102  0.1926
 2595TIP3    H133896   3.666   7.333   0.801 -0.3001 -0.0132 -0.1832
 2595TIP3    H233897   3.759   7.453   0.802 -0.6613  0.2666  0.7832
 2596TIP3   OH233898   2.663   8.084   6.293 -0.0916  0.3774 -0.0020
 2596TIP3    H133899   2.674   8.011   6.232 -1.9183 -0.1848  0.2936
 2596TIP3    H233900   2.568   8.095   6.302  0.0990  0.7564  2.3310
 2597TIP3   OH233901   5.585   2.292   7.263  0.0952 -0.4914 -0.4764
 2597TIP3    H133902   5.568   2.295   7.357 -0.8704  0.5119 -0.6624
 2597TIP3    H233903   5.623   2.377   7.243  0.3791 -0.7327 -0.9839
 2598TIP3   OH233904   8.038   3.965   0.616  0.5698  0.2623  0.3433
 2598TIP3    H133905   8.021   3.993   0.706 -0.2247  0.0425  0.2667
 2598TIP3    H233906   7.970   4.007   0.564  0.7610  0.0402 -0.0942
 2599TIP3   OH233907   3.377   3.464   0.179 -0.3630 -0.2944 -0.0028
 2599TIP3    H133908   3.363   3.476   0.085  0.3594  0.6869 -0.0066
 2599TIP3    H233909   3.408   3.373   0.187 -0.0153 -0.2511 -0.7615
 2600TIP3   OH233910   4.859   2.476   6.842  0.1069  0.4498 -0.6404
 2600TIP3    H133911   4.846   2.423   6.764  0.7949 -1.5516  0.5390
 2600TIP3    H233912   4.795   2.547   6.834 -0.4302 -0.2019 -2.5681
 2601TIP3   OH233913   1.950   4.954   6.672  0.4889 -0.2159 -0.5141
 2601TIP3    H133914   1.976   5.013   6.743  2.1905 -0.3635 -0.9832
 2601TIP3    H233915   1.909   4.880   6.717  0.7191  0.1046  0.2544
 2602TIP3   OH233916   1.737   2.563   6.194  0.3551  0.1930  0.7478
 2602TIP3    H133917   1.712   2.651   6.221 -0.5316  0.1051  0.2539
 2602TIP3    H233918   1.762   2.519   6.275 -1.1367  0.2835  1.2752
 2603TIP3   OH233919   1.500   1.151   7.594  0.0288 -0.1258 -0.1130
 2603TIP3    H133920   1.583   1.120   7.559 -0.4523 -1.1930 -0.3545
 2603TIP3    H233921   1.472   1.082   7.654 -0.8791  0.0250 -0.3428
 2604TIP3   OH233922   7.091   4.998   0.490  0.0232 -0.2750 -0.2368
 2604TIP3    H133923   7.121   4.916   0.530 -1.4840 -0.8969 -0.3340
 2604TIP3    H233924   7.172   5.043   0.467  0.8983 -1.5545  0.1700
 2605TIP3   OH233925   3.908   1.829   0.152 -0.3280  0.5867 -0.1016
 2605TIP3    H133926   3.828   1.854   0.199 -1.0330 -0.4507 -0.7262
 2605TIP3    H233927   3.959   1.779   0.217 -0.8793 -0.0518 -0.1547
 2606TIP3   OH233928   6.451   0.645   6.767  0.4464 -0.6959 -0.2330
 2606TIP3    H133929   6.480   0.557   6.791 -0.6865 -0.4030  2.5530
 2606TIP3    H233930   6.419   0.683   6.848 -0.1667  1.9121 -1.5791
 2607TIP3   OH233931   4.045   3.348   0.098  0.2077  0.0986 -0.0984
 2607TIP3    H133932   3.999   3.312   0.022 -0.3859 -2.4625  1.3380
 2607TIP3    H233933   4.126   3.383   0.063  0.2501 -1.6179 -1.8684
 2608TIP3   OH233934   5.051   3.800   7.229  0.1101  0.2165 -0.2602
 2608TIP3    H133935   5.029   3.868   7.292 -1.7876 -0.2244 -0.4056
 2608TIP3    H233936   5.054   3.846   7.145  2.5158  0.7789  0.0454
 2609TIP3   OH233937   1.718   7.507   7.105  0.0893  0.0783 -0.4619
 2609TIP3    H133938   1.635   7.526   7.149 -0.1601  0.6255 -1.1530
 2609TIP3    H233939   1.753   7.432   7.153 -2.2994 -2.2102 -2.0441
 2610TIP3   OH233940   1.369   5.404   1.418  0.6427  0.0974 -0.5256
 2610TIP3    H133941   1.459   5.378   1.397  0.0592 -3.1392  0.4190
 2610TIP3    H233942   1.339   5.452   1.341  3.2700  1.7583 -0.6609
 2611TIP3   OH233943   7.230   3.616   6.258 -0.2228 -0.1195  0.1465
 2611TIP3    H133944   7.273   3.694   6.220 -0.4090  0.3259  0.8384
 2611TIP3    H233945   7.189   3.573   6.183  1.9169 -0.8868 -0.6598
 2612TIP3   OH233946   7.158   2.823   0.601 -0.2618 -0.2250 -0.5333
 2612TIP3    H133947   7.183   2.736   0.631 -0.6228  0.1763  1.0047
 2612TIP3    H233948   7.062   2.820   0.595 -0.2837  0.1108 -0.3527
 2613TIP3   OH233949   3.634   6.176   1.935  0.6995 -0.3643  0.2721
 2613TIP3    H133950   3.593   6.260   1.911  0.2236 -0.8184 -0.5620
 2613TIP3    H233951   3.651   6.184   2.029 -0.3718  0.2359  0.4349
 2614TIP3   OH233952   6.459   4.649   1.021 -0.0297  0.3275 -0.3973
 2614TIP3    H133953   6.477   4.640   0.927  0.8522  0.5035 -0.2535
 2614TIP3    H233954   6.373   4.608   1.033  0.0200 -0.0392 -1.2172
 2615TIP3   OH233955   5.536   1.740   7.134  0.2659  0.0244 -0.3079
 2615TIP3    H133956   5.595   1.672   7.166 -1.3103 -0.4604  1.7484
 2615TIP3    H233957   5.580   1.822   7.157  0.6252 -0.3206  0.2734
 2616TIP3   OH233958   1.561   0.427   0.716 -0.1724  0.3752 -0.0031
 2616TIP3    H133959   1.547   0.521   0.704  0.4677  0.3839 -0.7631
 2616TIP3    H233960   1.656   0.416   0.710 -0.1474 -0.1764  1.2065
 2617TIP3   OH233961   5.048   5.800   2.097  0.0326 -0.0396 -0.2904
 2617TIP3    H133962   5.060   5.837   2.010  0.9127  0.7795  0.1581
 2617TIP3    H233963   4.957   5.771   2.099 -0.0506  0.1111 -1.4047
 2618TIP3   OH233964   4.902   3.019   7.741 -0.5658 -0.7285  0.7020
 2618TIP3    H133965   4.832   3.066   7.695 -0.3967 -0.5210  0.6595
 2618TIP3    H233966   4.948   3.086   7.790 -0.4189 -0.8728  0.7615
 2619TIP3   OH233967   0.189   3.303   7.573  0.2711  0.1768 -0.0979
 2619TIP3    H133968   0.143   3.386   7.557 -1.0851 -0.6465 -0.5734
 2619TIP3    H233969   0.154   3.243   7.508 -0.2381 -1.3450  1.5202
 2620TIP3   OH233970   3.241   6.418   0.081 -0.6574  0.6081  0.0283
 2620TIP3    H133971   3.237   6.369  -0.001  0.2625  0.3882  0.0957
 2620TIP3    H233972   3.194   6.499   0.064 -0.7716  0.4141 -0.6078
 2621TIP3   OH233973   6.531   1.428   0.080  0.7252  0.4234  0.3969
 2621TIP3    H133974   6.581   1.411   0.000  2.7336 -2.1462  2.0302
 2621TIP3    H233975   6.580   1.498   0.124  1.4053 -0.2634  0.7566
 2622TIP3   OH233976   1.973   6.613   0.762 -0.0692  0.4593 -0.0581
 2622TIP3    H133977   1.918   6.613   0.840 -0.8072  2.4865 -0.5159
 2622TIP3    H233978   1.963   6.701   0.725  1.4017  0.0277 -1.6399
 2623TIP3   OH233979   3.728   0.657   7.575 -0.1428  0.0101 -0.0392
 2623TIP3    H133980   3.788   0.686   7.507 -0.6627  0.4572 -0.3069
 2623TIP3    H233981   3.666   0.729   7.586 -1.8726 -1.2274 -1.1995
 2624TIP3   OH233982   3.844   3.877   0.569  0.4205 -0.7408 -0.2647
 2624TIP3    H133983   3.856   3.971   0.570 -0.2137 -0.6422  1.5375
 2624TIP3    H233984   3.933   3.841   0.569  0.6799 -0.1275  0.7873
 2625TIP3   OH233985   5.895   1.737   7.412  0.2965 -0.6488  0.3657
 2625TIP3    H133986   5.825   1.802   7.403 -0.0197 -1.0470 -0.1109
 2625TIP3    H233987   5.906   1.726   7.506 -0.6102 -0.9213  0.4522
 2626TIP3   OH233988   4.449   5.250   7.780  0.6698 -0.5145  0.0398
 2626TIP3    H133989   4.483   5.301   7.707  0.0263 -1.7842 -1.1960
 2626TIP3    H233990   4.363   5.289   7.798  0.1412 -1.1719 -0.9579
 2627TIP3   OH233991   0.344   5.056   6.941  0.3221 -0.2795  0.7919
 2627TIP3    H133992   0.277   5.100   6.992 -0.9860 -0.2771 -0.8625
 2627TIP3    H233993   0.305   4.973   6.915  1.2485 -0.6327  0.4678
 2628TIP3   OH233994   0.504   5.850   1.295  0.4084  0.0111 -0.0302
 2628TIP3    H133995   0.491   5.928   1.348  1.9935 -0.2665  0.8371
 2628TIP3    H233996   0.517   5.883   1.206  0.7014  0.7058  0.2668
 2629TIP3   OH233997   6.874   1.395   6.365 -0.2187 -0.2360  0.1630
 2629TIP3    H133998   6.860   1.456   6.438 -0.8505 -0.3974  0.1761
 2629TIP3    H233999   6.787   1.366   6.340  0.0640 -1.0425  0.0746
 2630TIP3   OH234000   8.007   7.987   7.278  0.3068  0.0159  0.0810
 2630TIP3    H134001   8.046   7.922   7.219 -0.6722  0.4399 -1.0608
 2630TIP3    H234002   8.050   8.069   7.255  0.3638  0.0719  0.3860
 2631TIP3   OH234003   6.385   3.610   0.826 -0.9928  0.4782  0.1205
 2631TIP3    H134004   6.317   3.573   0.770  0.4347 -0.5013 -1.0283
 2631TIP3    H234005   6.340   3.678   0.876 -2.7148  0.1444 -0.8946
 2632TIP3   OH234006   1.554   3.896   7.706 -0.3334 -0.0708  0.0118
 2632TIP3    H134007   1.548   3.911   7.800  1.7996  1.1799  0.0136
 2632TIP3    H234008   1.646   3.875   7.691 -0.3963  0.7735 -1.9024
 2633TIP3   OH234009   5.391   4.111   5.203 -0.0117  0.2041  0.0857
 2633TIP3    H134010   5.442   4.034   5.178  0.4484  0.6833 -0.4752
 2633TIP3    H234011   5.414   4.178   5.138  0.1720  1.0581  1.0058
 2634TIP3   OH234012   7.734   3.088   6.501 -0.0833  0.1650 -0.3472
 2634TIP3    H134013   7.735   3.169   6.450  0.7131  0.8354  0.7086
 2634TIP3    H234014   7.826   3.067   6.515 -0.2786 -0.8159 -0.4070
 2635TIP3   OH234015   0.538   0.914   1.360 -0.0624  0.0428  0.0045
 2635TIP3    H134016   0.457   0.962   1.375 -0.5418 -0.5401 -0.6378
 2635TIP3    H234017   0.555   0.867   1.441 -0.4749  0.0177  0.0764
 2636TIP3   OH234018   6.627   7.054   0.724 -0.2695 -0.5214 -0.2189
 2636TIP3    H134019   6.539   7.063   0.761  0.0105 -0.4626  0.4359
 2636TIP3    H234020   6.643   6.959   0.724 -0.1741 -0.5047  0.0319
 2637TIP3   OH234021   4.599   0.867   6.265 -0.0438  0.5796 -0.3012
 2637TIP3    H134022   4.614   0.921   6.187 -1.7898  0.8300 -0.4989
 2637TIP3    H234023   4.613   0.927   6.338 -0.3534  0.8695 -0.4776
 2638TIP3   OH234024   3.475   3.482   5.853 -0.2058 -0.0396 -0.1358
 2638TIP3    H134025   3.531   3.442   5.919  0.5351 -0.9057 -1.2569
 2638TIP3    H234026   3.492   3.576   5.860 -0.3360 -0.0885  1.0545
 2639TIP3   OH234027   7.216   2.531   6.385 -0.0788  0.1002  0.5827
 2639TIP3    H134028   7.289   2.577   6.426 -0.6881  0.3547  1.4265
 2639TIP3    H234029   7.199   2.457   6.444 -0.6599  0.1934  0.5376
 2640TIP3   OH234030   7.997   0.844   0.098  0.1934  0.1159 -0.2760
 2640TIP3    H134031   8.023   0.832   0.189  0.4746 -0.1466 -0.3910
 2640TIP3    H234032   7.936   0.772   0.080  0.2672  0.0700 -0.3443
 2641TIP3   OH234033   1.781   0.439   1.740 -0.1790  0.7340  0.0790
 2641TIP3    H134034   1.847   0.484   1.688 -0.0216 -0.7524 -1.0817
 2641TIP3    H234035   1.700   0.447   1.689 -0.7715  1.9121  1.1348
 2642TIP3   OH234036   0.812   3.883   6.988  0.1486  0.4643  0.3680
 2642TIP3    H134037   0.874   3.832   6.936 -0.0672 -0.1320  0.6788
 2642TIP3    H234038   0.862   3.958   7.019 -0.3336  2.2437 -2.7345
 2643TIP3   OH234039   6.477   7.936   2.457 -0.3405 -0.2204 -0.2384
 2643TIP3    H134040   6.558   7.959   2.412 -0.9099 -1.6084 -2.1141
 2643TIP3    H234041   6.481   7.841   2.467 -1.7244 -0.3292 -0.4138
 2644TIP3   OH234042   5.599   1.847   1.242  0.1771  0.1842 -0.0881
 2644TIP3    H134043   5.601   1.859   1.147  1.2539  2.1012  0.1177
 2644TIP3    H234044   5.687   1.871   1.271 -1.1334  3.5928  1.7351
 2645TIP3   OH234045   1.803   4.960   6.430  0.8921 -0.3459  0.0873
 2645TIP3    H134046   1.837   4.954   6.519 -1.2116  0.3597  1.0003
 2645TIP3    H234047   1.762   5.047   6.426  0.2171 -0.7063 -1.2898
 2646TIP3   OH234048   3.644   1.374   0.162  0.2374 -0.3617  0.2043
 2646TIP3    H134049   3.623   1.417   0.080 -1.0362  0.3079  0.8532
 2646TIP3    H234050   3.581   1.409   0.225  1.5403 -0.4171  1.6138
 2647TIP3   OH234051   7.046   1.825   1.191 -0.1084  0.4143  0.1335
 2647TIP3    H134052   6.990   1.885   1.240  0.3169  0.3446  0.7112
 2647TIP3    H234053   7.017   1.738   1.217 -0.6045  0.3571 -0.5683
 2648TIP3   OH234054   4.475   0.974   1.661  0.8310 -0.1555  0.1080
 2648TIP3    H134055   4.382   0.966   1.640 -0.0288  2.9457  1.9248
 2648TIP3    H234056   4.505   0.884   1.673 -2.1987 -1.2589  0.3996
 2649TIP3   OH234057   1.485   0.311   6.732 -0.1561 -0.0354  0.6217
 2649TIP3    H134058   1.420   0.347   6.671 -1.3208 -0.6414  1.4589
 2649TIP3    H234059   1.433   0.262   6.796  1.1130 -0.2521  1.5260
 2650TIP3   OH234060   3.126   1.344   0.823 -0.5758 -0.4204  0.8423
 2650TIP3    H134061   3.144   1.289   0.898  0.9050 -0.0968  0.7523
 2650TIP3    H234062   3.068   1.413   0.857  0.6618  0.1451  1.8908
 2651TIP3   OH234063   7.644   2.609   2.202  0.0989 -0.2026  0.2967
 2651TIP3    H134064   7.680   2.539   2.257 -1.1117  0.0386  1.4795
 2651TIP3    H234065   7.578   2.565   2.148  2.3324 -0.7363 -2.2126
 2652TIP3   OH234066   3.528   4.480   7.025 -0.0136  0.2347 -0.8861
 2652TIP3    H134067   3.461   4.433   6.974 -0.8870 -0.3049  0.7078
 2652TIP3    H234068   3.591   4.412   7.050  2.1255  0.9770 -3.7262
 2653TIP3   OH234069   0.414   1.096   1.701 -0.0487 -0.1091  0.1449
 2653TIP3    H134070   0.438   1.004   1.687  1.2015  0.2218 -0.0199
 2653TIP3    H234071   0.476   1.127   1.767 -0.8542  0.4664  0.6415
 2654TIP3   OH234072   2.799   0.620   1.111 -0.3766 -0.5015  0.0765
 2654TIP3    H134073   2.826   0.539   1.154 -0.2162 -0.9702 -0.8921
 2654TIP3    H234074   2.837   0.690   1.165  0.6869 -1.0963  0.1204
 2655TIP3   OH234075   2.920   3.782   7.888  0.3775  0.4026  0.3229
 2655TIP3    H134076   2.997   3.750   7.841 -0.6013 -2.9898  0.8019
 2655TIP3    H234077   2.858   3.804   7.818  0.6555  0.1394 -0.0158
 2656TIP3   OH234078   2.000   6.868   6.103 -0.2897  0.6486  0.7792
 2656TIP3    H134079   1.972   6.776   6.112 -1.6970  1.0855  1.1113
 2656TIP3    H234080   1.984   6.906   6.189  1.7805  0.8594  1.1222
 2657TIP3   OH234081   4.637   8.048   0.441  0.1597 -0.6986  0.1207
 2657TIP3    H134082   4.702   8.118   0.438 -0.6615  0.1185 -3.5055
 2657TIP3    H234083   4.683   7.971   0.408  0.0908 -0.9472  0.5890
 2658TIP3   OH234084   7.491   7.846   0.876 -0.0817 -0.6422  0.2111
 2658TIP3    H134085   7.505   7.814   0.965  1.5451  0.2841  0.3246
 2658TIP3    H234086   7.454   7.771   0.829 -0.9485 -1.1508  1.6458
 2659TIP3   OH234087   1.469   7.394   7.672  0.4565  0.0935 -0.4056
 2659TIP3    H134088   1.471   7.481   7.633  1.4089  0.3320  0.1675
 2659TIP3    H234089   1.397   7.398   7.735  0.5056  0.4648 -0.3714
 2660TIP3   OH234090   4.224   0.964   1.547 -0.0671 -0.7293  0.1651
 2660TIP3    H134091   4.209   0.942   1.455 -1.8836  0.9978 -0.0186
 2660TIP3    H234092   4.140   0.952   1.589 -0.4585  2.6241  0.6310
 2661TIP3   OH234093   2.877   5.332   1.996 -0.4972  0.1580 -0.2348
 2661TIP3    H134094   2.891   5.239   2.016  0.3788  0.6071  1.3706
 2661TIP3    H234095   2.931   5.379   2.059  0.6632  1.7504 -2.2749
 2662TIP3   OH234096   5.284   4.307   6.863 -0.7289  0.1023 -0.4328
 2662TIP3    H134097   5.371   4.327   6.829 -0.8784 -1.9407 -2.2701
 2662TIP3    H234098   5.301   4.259   6.944 -0.1982  0.6150 -0.2314
 2663TIP3   OH234099   1.147   1.980   1.491 -0.0729  0.2779 -0.3751
 2663TIP3    H134100   1.192   1.921   1.551 -0.6760 -1.2123 -1.3306
 2663TIP3    H234101   1.207   1.990   1.417 -1.1451 -1.5509 -1.5607
 2664TIP3   OH234102   6.897   3.722   6.060  0.5206 -0.1178 -0.0504
 2664TIP3    H134103   6.856   3.788   6.005  1.2873 -0.0832 -0.6011
 2664TIP3    H234104   6.856   3.732   6.146 -2.1190 -1.4772 -1.0641
 2665TIP3   OH234105   3.387   7.824   7.013 -0.2395 -0.2642 -0.1523
 2665TIP3    H134106   3.302   7.838   7.056 -0.5357  0.3203 -0.9193
 2665TIP3    H234107   3.433   7.764   7.072 -0.1389  1.4820  1.6584
 2666TIP3   OH234108   4.035   4.662   7.788 -0.6165  0.5511 -0.1040
 2666TIP3    H134109   4.097   4.638   7.719 -0.7806  1.2888 -0.5188
 2666TIP3    H234110   4.087   4.661   7.868 -0.5150 -0.7047 -0.1660
 2667TIP3   OH234111   2.718   6.278   1.489  0.0379  0.2132 -0.1605
 2667TIP3    H134112   2.630   6.241   1.496 -0.2875  0.9341 -0.3383
 2667TIP3    H234113   2.705   6.373   1.493  0.7064  0.3672 -1.0898
 2668TIP3   OH234114   2.381   4.903   7.044  0.5231  0.0255 -0.0526
 2668TIP3    H134115   2.406   4.825   7.092 -0.2889 -0.1147  0.1517
 2668TIP3    H234116   2.349   4.964   7.111 -0.0100  0.0676 -0.3406
 2669TIP3   OH234117   7.040   7.092   1.576 -0.1289  0.0499  0.0312
 2669TIP3    H134118   7.008   7.014   1.531  3.8551 -2.2102  0.6903
 2669TIP3    H234119   7.106   7.128   1.517 -0.1370  1.4795  0.8572
 2670TIP3   OH234120   7.937   0.620   0.855 -0.1677 -0.3061  0.3070
 2670TIP3    H134121   7.930   0.585   0.943  0.2944  0.8350  0.8140
 2670TIP3    H234122   7.934   0.715   0.866 -0.2030 -0.1471 -0.9107
 2671TIP3   OH234123   3.400   4.855   0.583 -0.3281 -0.0129  0.3655
 2671TIP3    H134124   3.492   4.877   0.567 -0.5083 -0.3244 -1.3023
 2671TIP3    H234125   3.403   4.778   0.639  0.3997  0.4510  0.9957
 2672TIP3   OH234126   7.147   5.549   2.939  0.0879  0.7480 -0.0932
 2672TIP3    H134127   7.198   5.496   3.001 -1.5254  0.4644  1.0779
 2672TIP3    H234128   7.160   5.506   2.855  1.5411  0.5437  0.2069
 2673TIP3   OH234129   3.898   7.060   7.747 -0.2122 -0.0475  0.0642
 2673TIP3    H134130   3.979   7.110   7.760  0.1395 -0.5334 -0.2594
 2673TIP3    H234131   3.912   7.011   7.667 -0.8334 -0.1349  0.0044
 2674TIP3   OH234132   5.539   3.399   0.726  0.3218 -0.7179  0.5484
 2674TIP3    H134133   5.565   3.413   0.634 -2.2903  0.0476 -0.1704
 2674TIP3    H234134   5.616   3.423   0.776  1.3646  0.3267 -1.4140
 2675TIP3   OH234135   2.009   0.298   7.147  0.3703  0.0654 -0.1736
 2675TIP3    H134136   2.045   0.378   7.110  1.7682 -0.6212 -0.3491
 2675TIP3    H234137   1.990   0.243   7.071 -1.9984  0.7380 -0.1615
 2676TIP3   OH234138   6.724   4.422   6.292 -0.5267  0.0081  0.3279
 2676TIP3    H134139   6.770   4.500   6.262 -1.9779  0.9908  0.5917
 2676TIP3    H234140   6.677   4.391   6.214  0.6441 -1.0986  0.0118
 2677TIP3   OH234141   7.580   1.203   0.378 -0.2046 -0.0125 -0.0111
 2677TIP3    H134142   7.675   1.192   0.372 -0.4314 -2.2606 -0.4707
 2677TIP3    H234143   7.550   1.198   0.288 -0.6906  2.2927 -0.0407
 2678TIP3   OH234144   0.603   3.331   0.148 -0.4185  0.1662  0.3346
 2678TIP3    H134145   0.642   3.315   0.234 -1.8090 -1.1614  0.7585
 2678TIP3    H234146   0.595   3.426   0.142  2.6940  0.5417  0.2522
 2679TIP3   OH234147   2.379   7.749   0.770  0.0327 -0.2967 -0.9971
 2679TIP3    H134148   2.424   7.834   0.770 -0.3639 -0.0135  1.3963
 2679TIP3    H234149   2.407   7.707   0.689  2.7699  0.8376 -0.7555
 2680TIP3   OH234150   3.174   1.070   7.386 -0.1735  0.4261  0.2022
 2680TIP3    H134151   3.135   1.084   7.473 -1.4913 -0.8186 -0.1538
 2680TIP3    H234152   3.122   1.000   7.347  1.7927 -0.6045 -0.7333
 2681TIP3   OH234153   3.098   3.464   0.437 -0.2475  0.6082 -0.3048
 2681TIP3    H134154   3.058   3.396   0.382 -0.3378  0.4782 -0.0776
 2681TIP3    H234155   3.130   3.529   0.374  2.0004 -0.7779 -0.7112
 2682TIP3   OH234156   3.283   5.162   6.893 -0.0531  0.5140 -0.0105
 2682TIP3    H134157   3.189   5.156   6.879 -0.2021  2.8387 -0.5244
 2682TIP3    H234158   3.293   5.161   6.988 -0.8854  2.5728  0.1532
 2683TIP3   OH234159   1.995   4.356   1.128 -0.2445 -0.0143  0.2351
 2683TIP3    H134160   1.936   4.422   1.164 -1.2266 -0.5376 -0.3415
 2683TIP3    H234161   1.942   4.276   1.128  0.3302 -0.4053 -0.6859
 2684TIP3   OH234162   6.373   0.632   1.444 -0.5043  0.0488 -0.0415
 2684TIP3    H134163   6.285   0.656   1.415 -0.4849 -0.3227 -0.4103
 2684TIP3    H234164   6.370   0.537   1.455  0.3396 -0.2092 -1.7840
 2685TIP3   OH234165   6.534   2.916   2.206  0.1194 -0.3660  0.0872
 2685TIP3    H134166   6.515   3.004   2.240 -1.4378 -0.4098 -0.6120
 2685TIP3    H234167   6.474   2.905   2.133  0.4237 -1.9629  0.0475
 2686TIP3   OH234168   1.359   5.972   6.654 -0.4113 -0.0302 -0.4450
 2686TIP3    H134169   1.415   5.992   6.580  0.2460  1.9011  0.5079
 2686TIP3    H234170   1.300   6.047   6.660  2.0749  1.9551  3.2522
 2687TIP3   OH234171   1.346   4.695   0.845  0.4012  0.0879  0.8271
 2687TIP3    H134172   1.353   4.668   0.936 -2.6959  0.7494  1.3677
 2687TIP3    H234173   1.370   4.617   0.795  3.0554 -0.0240  2.0917
 2688TIP3   OH234174   0.727   7.700   6.762  0.7187 -0.4922 -0.3227
 2688TIP3    H134175   0.721   7.605   6.748  0.9360 -0.5790  0.1658
 2688TIP3    H234176   0.643   7.734   6.733  0.4913 -0.8851 -0.1284
 2689TIP3   OH234177   2.810   4.251   7.433 -0.1988 -0.3864 -0.1836
 2689TIP3    H134178   2.772   4.181   7.380 -0.8367 -0.9053  0.9331
 2689TIP3    H234179   2.766   4.331   7.402  1.5551 -0.2075 -2.4604
 2690TIP3   OH234180   0.538   3.674   7.476  0.2631  0.2230  0.1177
 2690TIP3    H134181   0.527   3.642   7.566 -2.1272  0.3091 -0.0791
 2690TIP3    H234182   0.517   3.767   7.482  1.3872  0.5083 -0.3205
 2691TIP3   OH234183   1.216   7.055   0.383 -0.1495 -0.8876 -0.4973
 2691TIP3    H134184   1.290   7.046   0.322 -0.2872 -0.8386 -0.6729
 2691TIP3    H234185   1.140   7.028   0.332 -0.2845 -0.7077 -0.3903
 2692TIP3   OH234186   1.789   3.780   7.183 -0.3338  0.6318  0.3929
 2692TIP3    H134187   1.747   3.836   7.118 -1.1176 -1.5242 -1.0438
 2692TIP3    H234188   1.881   3.776   7.156 -0.7665 -0.7051 -0.9606
 2693TIP3   OH234189   4.526   3.453   6.969  0.1876  0.0877 -0.4529
 2693TIP3    H134190   4.497   3.467   6.879 -2.1107  0.1014  0.2311
 2693TIP3    H234191   4.604   3.508   6.978  0.5466 -0.0119 -2.4480
 2694TIP3   OH234192   2.528   5.003   1.785  0.0918 -0.1790  0.0805
 2694TIP3    H134193   2.557   5.006   1.694 -0.8009 -0.2577 -0.2166
 2694TIP3    H234194   2.598   4.958   1.831 -0.0433 -1.3423 -0.8130
 2695TIP3   OH234195   6.221   3.972   1.464  0.4894 -0.1105  0.5166
 2695TIP3    H134196   6.206   3.884   1.498 -0.9365  0.4905  1.5331
 2695TIP3    H234197   6.254   4.021   1.540 -0.1564  0.5889  0.3534
 2696TIP3   OH234198   1.015   5.372   6.252  0.2617  0.1921 -0.2086
 2696TIP3    H134199   0.987   5.305   6.190  0.7115  0.4728 -0.7239
 2696TIP3    H234200   0.960   5.448   6.233 -1.0646 -0.3710  1.1514
 2697TIP3   OH234201   5.129   3.734   0.588  0.3957 -0.0106  0.0050
 2697TIP3    H134202   5.194   3.666   0.607  1.6981  0.8085 -1.3181
 2697TIP3    H234203   5.069   3.692   0.526  1.9023  0.3317 -1.7936
 2698TIP3   OH234204   6.291   3.995   7.321  0.0515 -0.1658  0.6142
 2698TIP3    H134205   6.232   4.049   7.269  1.6940  0.9469 -0.1765
 2698TIP3    H234206   6.282   3.907   7.284 -0.2448  0.2224 -0.2617
 2699TIP3   OH234207   3.175   2.661   1.338 -0.0427 -0.1348  0.0041
 2699TIP3    H134208   3.231   2.736   1.316 -0.5489  0.0046 -0.8514
 2699TIP3    H234209   3.231   2.605   1.391  0.4798  0.6453  0.3078
 2700TIP3   OH234210   4.099   1.711   7.431  0.3556 -0.2119 -0.6410
 2700TIP3    H134211   4.083   1.710   7.526  0.0664  1.1609 -0.6541
 2700TIP3    H234212   4.049   1.637   7.398 -1.1562  0.4356  0.0630
 2701TIP3   OH234213   7.190   0.404   1.550  0.0181  0.0022  0.0559
 2701TIP3    H134214   7.259   0.398   1.617 -0.4811  0.3871  0.6165
 2701TIP3    H234215   7.113   0.366   1.592 -0.1411 -0.3152 -0.5256
 2702TIP3   OH234216   1.687   2.316   6.682  0.3025 -0.3898  0.1916
 2702TIP3    H134217   1.692   2.381   6.752 -0.6364  0.0780 -0.1509
 2702TIP3    H234218   1.593   2.296   6.675  0.5659 -1.7391  0.2420
 2703TIP3   OH234219   7.715   3.625   7.057 -0.5984  0.5765 -0.0800
 2703TIP3    H134220   7.668   3.576   6.990 -0.1623  0.3446 -0.2210
 2703TIP3    H234221   7.648   3.646   7.123 -0.5538 -1.3744  0.6579
 2704TIP3   OH234222   7.787   0.989   6.657  0.7308  0.9985  0.5038
 2704TIP3    H134223   7.788   0.979   6.562  1.1042 -2.2391  0.7470
 2704TIP3    H234224   7.870   1.032   6.678  1.5024  0.0715 -0.5227
 2705TIP3   OH234225   6.641   6.287   7.157 -0.9062 -0.3181  0.0449
 2705TIP3    H134226   6.711   6.284   7.091 -1.6013 -0.9372 -0.6967
 2705TIP3    H234227   6.664   6.360   7.214 -1.2970  1.5397 -2.0394
 2706TIP3   OH234228   8.029   7.127   2.222  0.0013  0.4887  0.1712
 2706TIP3    H134229   7.979   7.183   2.282 -1.1712 -0.7408  0.3825
 2706TIP3    H234230   7.970   7.055   2.202  0.4225  0.7495 -2.3199
 2707TIP3   OH234231   1.035   3.602   1.218 -0.0094 -0.1388 -0.5255
 2707TIP3    H134232   1.029   3.541   1.143  0.6532 -0.7224 -0.1178
 2707TIP3    H234233   1.129   3.615   1.230  0.0097 -1.5474  1.3758
 2708TIP3   OH234234   2.712   4.731   1.181 -0.5530 -0.3150  0.6554
 2708TIP3    H134235   2.803   4.737   1.152 -1.0870  0.6061 -0.9248
 2708TIP3    H234236   2.684   4.821   1.192 -1.2365 -0.5949  1.2838
 2709TIP3   OH234237   6.260   7.695   5.537  0.0285 -0.1250 -0.1027
 2709TIP3    H134238   6.302   7.613   5.564  0.3366  0.0621 -0.0072
 2709TIP3    H234239   6.167   7.672   5.526 -0.0217 -0.3061  0.6726
 2710TIP3   OH234240   7.055   0.707   0.955  1.0501  0.4082  0.1061
 2710TIP3    H134241   7.079   0.799   0.940  1.5670  0.0135 -1.6145
 2710TIP3    H234242   7.026   0.675   0.870 -0.8185 -0.5727  1.0565
 2711TIP3   OH234243   3.011   0.904   7.198  0.2205 -0.7082  0.0256
 2711TIP3    H134244   3.070   0.832   7.223 -1.1618 -1.6130  0.8034
 2711TIP3    H234245   2.932   0.861   7.166 -0.0949  0.4851 -0.8722
 2712TIP3   OH234246   7.525   1.329   2.015 -0.2045 -0.2862  0.3011
 2712TIP3    H134247   7.619   1.334   1.999 -0.4635 -1.8937 -2.1668
 2712TIP3    H234248   7.515   1.257   2.077  0.1501 -0.3340  0.3026
 2713TIP3   OH234249   1.971   4.494   0.153  0.1685 -0.1937  0.2928
 2713TIP3    H134250   1.914   4.449   0.091 -0.0631  0.2304  0.1911
 2713TIP3    H234251   1.981   4.433   0.226  0.3344 -0.6406 -0.1045
 2714TIP3   OH234252   1.483   4.676   1.092  0.6045  0.9116 -0.0715
 2714TIP3    H134253   1.514   4.766   1.083 -1.4133  1.5226 -1.5548
 2714TIP3    H234254   1.483   4.659   1.186  1.2126  2.3637  0.2120
 2715TIP3   OH234255   5.949   5.915   7.687  0.5167 -0.2531 -0.5145
 2715TIP3    H134256   5.995   5.927   7.604  0.9545  0.8051 -0.1401
 2715TIP3    H234257   6.016   5.881   7.747  0.5453  0.2503 -0.2536
 2716TIP3   OH234258   6.886   7.435   6.576 -0.1432 -0.2530 -0.6542
 2716TIP3    H134259   6.810   7.479   6.614  0.5486 -1.0587  1.8358
 2716TIP3    H234260   6.878   7.452   6.482 -1.5154  2.5791 -0.1459
 2717TIP3   OH234261   5.470   6.312   7.463  0.3967 -0.3136  0.0790
 2717TIP3    H134262   5.472   6.298   7.368  1.8757 -0.4456  0.1110
 2717TIP3    H234263   5.379   6.293   7.487 -0.2169  0.4975 -1.4131
 2718TIP3   OH234264   6.957   7.752   7.448  0.0612 -0.9700  0.4980
 2718TIP3    H134265   7.029   7.750   7.511  1.1530  0.9513 -0.6305
 2718TIP3    H234266   6.882   7.785   7.498  0.9722  0.7643  0.7892
 2719TIP3   OH234267   1.993   6.665   6.892  0.2993  0.2476  0.1916
 2719TIP3    H134268   2.032   6.582   6.865  0.0813 -0.1461  1.0752
 2719TIP3    H234269   1.899   6.650   6.889  0.2728  0.0640  1.5558
 2720TIP3   OH234270   5.864   1.376   7.504 -0.1415  0.5739 -0.6578
 2720TIP3    H134271   5.777   1.371   7.463 -0.1021 -1.3233 -0.5989
 2720TIP3    H234272   5.847   1.370   7.598  0.0616 -0.4856 -0.6737
 2721TIP3   OH234273   3.027   6.487   6.324  0.2856 -0.2436 -0.1997
 2721TIP3    H134274   3.115   6.460   6.300 -0.4619 -3.5870  0.3842
 2721TIP3    H234275   3.014   6.453   6.412 -1.1858  1.3025  0.2455
 2722TIP3   OH234276   1.632   6.404   7.659  0.0473  0.5537  0.4027
 2722TIP3    H134277   1.571   6.357   7.716 -0.9512  0.9861 -0.2886
 2722TIP3    H234278   1.596   6.493   7.654  0.3745  0.6406 -0.5307
 2723TIP3   OH234279   5.860   7.829   0.481 -0.5427  0.1297 -0.0838
 2723TIP3    H134280   5.830   7.749   0.438 -1.4039  0.2514  0.2701
 2723TIP3    H234281   5.917   7.798   0.552 -3.5917 -0.4480  2.3116
 2724TIP3   OH234282   3.531   1.363   0.868 -0.5302 -0.0089 -0.0470
 2724TIP3    H134283   3.546   1.382   0.961  1.4925 -1.0580 -0.1060
 2724TIP3    H234284   3.612   1.390   0.825 -0.3606 -2.0762 -1.1023
 2725TIP3   OH234285   5.460   3.380   1.100 -0.2271  0.1743 -0.2975
 2725TIP3    H134286   5.507   3.449   1.054 -0.2914 -0.6715 -1.6827
 2725TIP3    H234287   5.367   3.400   1.084 -0.2369 -0.4551 -1.0617
 2726TIP3   OH234288   1.014   6.527   6.547  0.1677 -0.1506  0.6996
 2726TIP3    H134289   1.015   6.523   6.643 -0.6456 -1.3265  0.6820
 2726TIP3    H234290   0.945   6.466   6.521  1.8618 -1.5759 -0.7044
 2727TIP3   OH234291   4.409   3.802   0.887 -0.6484 -0.0020 -0.1800
 2727TIP3    H134292   4.367   3.726   0.847 -0.9431  0.4183 -0.6677
 2727TIP3    H234293   4.472   3.764   0.949 -0.8614 -0.6415 -0.3477
 2728TIP3   OH234294   6.800   3.094   6.210 -0.0050  0.2954 -0.2452
 2728TIP3    H134295   6.867   3.110   6.276  1.6111  0.2887 -1.8225
 2728TIP3    H234296   6.842   3.114   6.127 -1.1453 -2.1216 -1.5033
 2729TIP3   OH234297   7.222   5.575   1.508  0.6651  0.3454 -0.1961
 2729TIP3    H134298   7.266   5.548   1.427  0.9159 -1.7147  0.5800
 2729TIP3    H234299   7.154   5.509   1.522  0.8575  0.4613  1.4670
 2730TIP3   OH234300   4.713   2.095   6.409  0.2158  0.0279  0.3877
 2730TIP3    H134301   4.756   2.177   6.383  1.1620 -0.7932 -0.7628
 2730TIP3    H234302   4.666   2.067   6.330 -0.3800 -0.3638  0.8799
 2731TIP3   OH234303   6.065   3.802   7.493 -0.2308  0.2675  0.8803
 2731TIP3    H134304   5.976   3.817   7.462  0.0880  0.7484  0.1671
 2731TIP3    H234305   6.115   3.784   7.414  0.4770  0.8829  1.1712
 2732TIP3   OH234306   6.752   4.727   7.209 -0.0550 -0.7601  0.2733
 2732TIP3    H134307   6.726   4.812   7.174 -1.2986 -1.9406 -1.8439
 2732TIP3    H234308   6.844   4.738   7.234  0.1788  0.8440 -1.1476
 2733TIP3   OH234309   2.139   1.080   0.460 -0.0310 -0.5021  0.3245
 2733TIP3    H134310   2.213   1.120   0.414 -0.0539  0.1812  0.8602
 2733TIP3    H234311   2.065   1.090   0.401  0.1298 -0.4504  0.1302
 2734TIP3   OH234312   1.306   2.391   6.013  0.2893  0.4808 -0.0723
 2734TIP3    H134313   1.239   2.447   5.975  0.5443  0.7887 -0.0702
 2734TIP3    H234314   1.285   2.303   5.980 -1.1693  0.2602  1.3765
 2735TIP3   OH234315   3.793   6.569   6.771  0.0089  0.3159  0.1437
 2735TIP3    H134316   3.799   6.485   6.726  1.0103 -0.8054  2.2064
 2735TIP3    H234317   3.719   6.559   6.831 -0.5433  1.3139 -0.3581
 2736TIP3   OH234318   6.449   4.612   5.720  0.2954  0.0439  0.3853
 2736TIP3    H134319   6.402   4.663   5.654 -0.0197  0.0187  0.5904
 2736TIP3    H234320   6.381   4.574   5.775  0.5200 -0.6581  0.1962
 2737TIP3   OH234321   8.020   4.649   0.788  0.0005  0.1748  0.4836
 2737TIP3    H134322   8.057   4.686   0.869  1.7454 -0.4244  0.0084
 2737TIP3    H234323   8.093   4.649   0.726 -0.5534 -1.8753 -0.2594
 2738TIP3   OH234324   4.633   3.444   6.431  1.0541 -0.2382 -0.1471
 2738TIP3    H134325   4.706   3.412   6.379  1.3780  0.2203  0.0191
 2738TIP3    H234326   4.666   3.447   6.521  1.0975  0.7363 -0.1838
 2739TIP3   OH234327   7.977   3.083   7.788  0.1420 -0.5915  0.0144
 2739TIP3    H134328   8.023   3.005   7.758 -0.5974 -1.1999  0.4152
 2739TIP3    H234329   8.025   3.111   7.867  0.9837 -0.0626 -0.6710
 2740TIP3   OH234330   1.168   1.123   6.018  0.2585  0.0376  0.3601
 2740TIP3    H134331   1.216   1.183   5.961 -0.6269  0.9102  0.5041
 2740TIP3    H234332   1.139   1.053   5.960 -1.7575  1.5694 -0.5907
 2741TIP3   OH234333   3.821   0.125   0.776  0.2937  0.3147  0.0733
 2741TIP3    H134334   3.895   0.151   0.831  2.1348 -0.1509 -2.0557
 2741TIP3    H234335   3.802   0.202   0.723  0.3424 -0.0931 -0.5404
 2742TIP3   OH234336   7.179   4.794   0.622  0.3497  0.2505 -0.4681
 2742TIP3    H134337   7.154   4.706   0.594 -0.9289  0.0437  1.1334
 2742TIP3    H234338   7.227   4.780   0.704  2.5398  0.9153 -1.5704
 2743TIP3   OH234339   5.942   3.891   0.247 -0.0730 -0.2171 -0.8395
 2743TIP3    H134340   5.878   3.823   0.228  1.4937 -1.9500 -0.2085
 2743TIP3    H234341   5.999   3.892   0.170 -0.5458  0.9898 -1.1992
 2744TIP3   OH234342   7.358   0.592   6.213 -0.2272 -0.6156  0.2829
 2744TIP3    H134343   7.309   0.511   6.195 -1.1908 -0.4304  1.8731
 2744TIP3    H234344   7.442   0.563   6.246  0.6427 -0.9420 -2.0542
 2745TIP3   OH234345   4.971   5.559   1.184  0.1209  0.8300  0.0355
 2745TIP3    H134346   5.020   5.491   1.137 -0.5192  1.1424 -1.1406
 2745TIP3    H234347   5.037   5.620   1.215  0.5950  0.3782 -0.0693
 2746TIP3   OH234348   7.274   4.315   6.927 -0.3175  0.0364 -0.7378
 2746TIP3    H134349   7.255   4.408   6.943 -0.1249 -0.0913  0.3166
 2746TIP3    H234350   7.367   4.313   6.906 -0.0622 -0.0346  0.3626
 2747TIP3   OH234351   0.192   6.037   7.564  0.0342  0.0228  0.6459
 2747TIP3    H134352   0.265   5.994   7.610  0.1359  0.1575  0.6128
 2747TIP3    H234353   0.223   6.127   7.551  0.1454 -0.1097 -0.0054
 2748TIP3   OH234354   0.593   7.818   7.660  0.0863  0.7990 -0.5277
 2748TIP3    H134355   0.539   7.784   7.731  0.3958 -0.7988 -1.0290
 2748TIP3    H234356   0.656   7.876   7.704 -1.1704  1.6799  0.2024
 2749TIP3   OH234357   6.769   7.619   5.487 -0.6473 -0.1514 -0.1018
 2749TIP3    H134358   6.857   7.656   5.500 -0.3855 -0.5897 -0.6107
 2749TIP3    H234359   6.748   7.640   5.396 -1.5784  1.0071  0.3475
 2750TIP3   OH234360   5.410   6.632   0.539 -0.6813  0.5433 -0.5609
 2750TIP3    H134361   5.496   6.673   0.530 -0.4289 -0.2358 -2.0599
 2750TIP3    H234362   5.357   6.697   0.585  1.2093  0.2612  2.2625
 2751TIP3   OH234363   4.852   0.213   6.065  0.3119  0.2336 -0.4479
 2751TIP3    H134364   4.783   0.219   6.131 -0.5204  1.5048 -1.3946
 2751TIP3    H234365   4.927   0.174   6.111  0.1582  2.1658  1.5722
 2752TIP3   OH234366   5.846   6.348   0.003  0.2969 -0.0605  0.5578
 2752TIP3    H134367   5.929   6.303   0.024  0.5909  0.6797  1.0475
 2752TIP3    H234368   5.781   6.305   0.058  0.5802  0.1122  1.0356
 2753TIP3   OH234369   6.249   2.631   7.204 -0.0947 -0.0396 -0.4588
 2753TIP3    H134370   6.197   2.554   7.179  0.3056 -0.2384 -0.6851
 2753TIP3    H234371   6.262   2.621   7.298  2.9696 -2.1654 -0.9561
 2754TIP3   OH234372   0.043   1.647   7.722 -0.0356  0.2723  0.3815
 2754TIP3    H134373   0.084   1.618   7.641 -0.1595  1.3336 -0.0751
 2754TIP3    H234374   0.089   1.727   7.746 -1.1556  0.9351  0.4009
 2755TIP3   OH234375   0.572   1.871   7.002 -0.5185 -0.1501 -0.6445
 2755TIP3    H134376   0.604   1.954   6.966 -1.5507  0.0815 -1.0614
 2755TIP3    H234377   0.477   1.883   7.011 -0.9449 -1.8176 -2.2388
 2756TIP3   OH234378   6.293   2.008   5.966  0.0112 -0.4516  0.1754
 2756TIP3    H134379   6.360   2.019   6.034  2.1046  0.4089 -1.8766
 2756TIP3    H234380   6.264   1.917   5.974  0.0395 -0.3062  2.3106
 2757TIP3   OH234381   1.446   7.492   2.025 -0.3693  0.6093  1.0054
 2757TIP3    H134382   1.372   7.542   2.057  0.0695  0.2655  2.6596
 2757TIP3    H234383   1.426   7.401   2.049 -0.1313  0.2932  0.0527
 2758TIP3   OH234384   3.363   7.434   1.669  0.2534 -0.2060  0.1240
 2758TIP3    H134385   3.437   7.474   1.623  1.2184 -0.1698  1.6647
 2758TIP3    H234386   3.395   7.347   1.693 -0.3703 -0.3603  0.4074
 2759TIP3   OH234387   8.084   4.691   0.015 -0.0535 -0.1137 -0.4106
 2759TIP3    H134388   8.168   4.729  -0.011  0.9376 -0.6968  1.6892
 2759TIP3    H234389   8.092   4.679   0.110 -2.2362 -0.8989 -0.2693
 2760TIP3   OH234390   5.740   0.348   7.384  0.0478 -0.3048  0.2076
 2760TIP3    H134391   5.749   0.417   7.318  1.4639 -1.1150 -0.4921
 2760TIP3    H234392   5.752   0.393   7.467  1.0640  0.2855 -0.2458
 2761TIP3   OH234393   5.264   1.234   0.770  0.0031 -0.1135 -0.4275
 2761TIP3    H134394   5.275   1.293   0.696  1.6744  0.7115  0.4299
 2761TIP3    H234395   5.344   1.182   0.772 -0.1025 -0.2556  0.6848
 2762TIP3   OH234396   6.835   3.425   1.604 -0.5336 -0.1812  0.0685
 2762TIP3    H134397   6.809   3.333   1.610  0.4321 -0.3792  2.1547
 2762TIP3    H234398   6.777   3.470   1.665  0.0890  0.3013  0.3198
 2763TIP3   OH234399   5.480   6.730   6.321 -0.2885  0.0482  0.4041
 2763TIP3    H134400   5.460   6.683   6.402 -0.9020 -0.8913 -0.2823
 2763TIP3    H234401   5.407   6.711   6.262 -0.0196  0.9959 -0.2657
 2764TIP3   OH234402   3.580   0.382   6.586  0.2324  0.2030  0.2843
 2764TIP3    H134403   3.594   0.393   6.492 -1.6876  0.4089 -0.0165
 2764TIP3    H234404   3.637   0.447   6.626  0.8515  0.3252 -0.7504
 2765TIP3   OH234405   7.807   5.185   0.863 -0.3053  0.1828 -0.0788
 2765TIP3    H134406   7.880   5.123   0.869  1.0491  1.7180 -0.0981
 2765TIP3    H234407   7.817   5.226   0.777  1.0340  2.9709  1.2761
 2766TIP3   OH234408   5.377   1.649   7.473  0.0185 -0.1820  0.2483
 2766TIP3    H134409   5.396   1.613   7.560 -2.1834 -0.3654  0.7288
 2766TIP3    H234410   5.445   1.715   7.459  0.4811 -0.2053  2.0761
 2767TIP3   OH234411   5.841   0.129   7.255 -0.4364  0.0181 -0.2788
 2767TIP3    H134412   5.800   0.157   7.173 -0.3531  1.7928  0.2637
 2767TIP3    H234413   5.799   0.182   7.323 -0.8482 -1.7480  0.9425
 2768TIP3   OH234414   0.970   1.873   5.672 -0.3562  0.5068 -0.3793
 2768TIP3    H134415   1.036   1.914   5.616 -1.3606  0.1141 -1.9321
 2768TIP3    H234416   0.975   1.780   5.649  0.7891 -0.0676  1.9147
 2769TIP3   OH234417   3.346   0.444   7.064  0.0357 -0.1992  0.1318
 2769TIP3    H134418   3.433   0.483   7.069 -0.2611  0.6111 -0.7819
 2769TIP3    H234419   3.325   0.420   7.155  0.6268  0.9103  0.5746
 2770TIP3   OH234420   4.910   0.026   1.951  0.9543 -0.2234 -0.7528
 2770TIP3    H134421   4.957  -0.005   2.029  0.3755  0.1351 -0.2568
 2770TIP3    H234422   4.979   0.047   1.889  1.4029 -1.5595 -0.7485
 2771TIP3   OH234423   1.315   2.188   0.830  0.0620 -0.8647 -0.4924
 2771TIP3    H134424   1.247   2.125   0.854  1.1323 -2.2757 -0.9975
 2771TIP3    H234425   1.391   2.161   0.881 -0.0583  1.4837  1.0733
 2772TIP3   OH234426   4.726   0.424   1.483 -0.5371  0.0905  0.5511
 2772TIP3    H134427   4.789   0.370   1.436 -0.4988 -3.0909  3.8036
 2772TIP3    H234428   4.780   0.490   1.528  0.2833 -1.1993  1.5301
 2773TIP3   OH234429   0.201   5.195   1.817  0.2942  0.6974  0.1538
 2773TIP3    H134430   0.247   5.210   1.735  1.0499 -2.1888 -0.0441
 2773TIP3    H234431   0.270   5.196   1.884 -0.0143  0.8190  0.4790
 2774TIP3   OH234432   0.488   5.893   7.527 -0.2185 -0.3896  0.6193
 2774TIP3    H134433   0.524   5.850   7.604 -0.9248  0.9608  1.7415
 2774TIP3    H234434   0.540   5.973   7.517  2.2423 -2.1391 -2.4608
 2775TIP3   OH234435   5.820   1.246   0.676 -0.0563  0.0600  0.0176
 2775TIP3    H134436   5.853   1.175   0.731 -0.7645 -1.0158 -0.9103
 2775TIP3    H234437   5.878   1.247   0.600 -1.4744 -1.1613 -1.1283
 2776TIP3   OH234438   1.155   3.134   1.172  0.1420  0.4558  0.1949
 2776TIP3    H134439   1.229   3.127   1.232  0.7498 -1.4751 -0.7241
 2776TIP3    H234440   1.191   3.177   1.094 -0.6370  2.9253  1.0804
 2777TIP3   OH234441   3.772   2.303   1.698 -0.0012 -0.5141  0.3121
 2777TIP3    H134442   3.688   2.294   1.743 -0.7559  3.5602  0.0815
 2777TIP3    H234443   3.829   2.346   1.762 -0.2513  2.8260 -1.4880
 2778TIP3   OH234444   5.996   7.360   6.521  0.4372 -0.2407 -0.0839
 2778TIP3    H134445   5.968   7.388   6.434 -3.0240 -0.8211  0.7200
 2778TIP3    H234446   5.969   7.269   6.528 -0.5707  0.1487  2.0005
 2779TIP3   OH234447   6.402   5.390   6.445  0.6004 -0.1588 -0.4032
 2779TIP3    H134448   6.313   5.361   6.428  0.3591  0.3700 -0.0581
 2779TIP3    H234449   6.417   5.461   6.383  1.2470 -1.1033 -1.3563
 2780TIP3   OH234450   1.370   0.636   0.367 -0.5186 -0.2871 -0.5713
 2780TIP3    H134451   1.427   0.590   0.305 -1.1796 -0.0472 -1.3848
 2780TIP3    H234452   1.299   0.573   0.385  0.3405 -0.8614  0.9973
 2781TIP3   OH234453   3.892   6.041   7.040  0.3366 -0.1062 -0.1176
 2781TIP3    H134454   3.839   5.980   6.990  2.1149 -1.1052 -0.8556
 2781TIP3    H234455   3.955   5.986   7.087  1.2335  1.0709  0.1192
 2782TIP3   OH234456   2.951   1.118   1.216 -0.2768  0.4317 -0.1830
 2782TIP3    H134457   2.881   1.168   1.174  0.4323  0.7487 -1.0131
 2782TIP3    H234458   3.025   1.125   1.156  0.4366  0.0079  0.6234
 2783TIP3   OH234459   1.395   2.736   6.946  0.1268 -0.1416  0.8474
 2783TIP3    H134460   1.449   2.737   7.025 -0.0779  0.4772  0.9852
 2783TIP3    H234461   1.385   2.828   6.923  1.7779 -0.3612 -1.0039
 2784TIP3   OH234462   2.469   3.880   1.510  0.1393  0.1868 -0.0535
 2784TIP3    H134463   2.529   3.952   1.528 -2.1099  2.0723  0.4492
 2784TIP3    H234464   2.452   3.886   1.415  0.2360  0.0855 -0.0771
 2785TIP3   OH234465   4.536   4.987   7.612  0.0711  0.6793 -0.4038
 2785TIP3    H134466   4.552   4.970   7.705 -0.8939 -0.3249 -0.4021
 2785TIP3    H234467   4.599   4.931   7.567  0.5057  1.1299 -0.3692
 2786TIP3   OH234468   2.702   1.623   6.940 -0.4879  0.1232  0.0959
 2786TIP3    H134469   2.743   1.571   7.008 -0.9084 -0.5200 -0.1380
 2786TIP3    H234470   2.695   1.711   6.978  0.1970  0.0146  0.4971
 2787TIP3   OH234471   7.409   5.826   7.021 -0.7049  0.2185  0.7279
 2787TIP3    H134472   7.356   5.898   6.988 -0.7264 -0.3631 -0.5925
 2787TIP3    H234473   7.444   5.784   6.942  1.4855  0.3962  1.5290
 2788TIP3   OH234474   4.274   7.354   7.646 -0.1521 -0.3468 -0.3804
 2788TIP3    H134475   4.213   7.419   7.682  0.8137 -0.2460  1.2016
 2788TIP3    H234476   4.269   7.281   7.708  0.7537 -0.6402 -0.6437
 2789TIP3   OH234477   0.624   1.530   6.081 -0.1450  0.3930  0.7993
 2789TIP3    H134478   0.601   1.601   6.140  0.1737  1.2444 -0.0840
 2789TIP3    H234479   0.627   1.570   5.994 -1.4979 -1.0154  0.0520
 2790TIP3   OH234480   4.884   0.729   0.362  0.3823  0.1553 -0.0500
 2790TIP3    H134481   4.865   0.685   0.279  1.0652  0.7217 -0.5148
 2790TIP3    H234482   4.968   0.692   0.390 -0.8199 -1.5995  1.4881
 2791TIP3   OH234483   0.750   0.346   5.507 -0.4841 -0.0350  0.1494
 2791TIP3    H134484   0.714   0.258   5.518 -1.1482  0.1735 -0.3205
 2791TIP3    H234485   0.731   0.369   5.416  2.0039 -0.4315 -0.5475
 2792TIP3   OH234486   2.367   0.975   5.909  0.1873  0.1375 -0.0500
 2792TIP3    H134487   2.359   0.987   5.814  0.1619  1.1627  0.0721
 2792TIP3    H234488   2.461   0.968   5.925  0.1507 -1.3204 -0.2752
 2793TIP3   OH234489   6.798   3.027   0.803  0.2589 -0.6761 -0.4711
 2793TIP3    H134490   6.809   2.950   0.748 -0.7957  0.6990 -2.7233
 2793TIP3    H234491   6.728   3.003   0.864  2.8975 -3.0095  1.9921
 2794TIP3   OH234492   4.680   0.595   6.166  0.1522 -0.2346  0.0461
 2794TIP3    H134493   4.656   0.515   6.213 -1.2617 -0.4271 -0.9436
 2794TIP3    H234494   4.621   0.661   6.200 -1.3412 -0.5202 -1.8428
 2795TIP3   OH234495   5.188   2.016   6.452  0.1508  0.1137 -0.0324
 2795TIP3    H134496   5.273   2.060   6.452  0.9262 -1.2942 -1.0845
 2795TIP3    H234497   5.189   1.962   6.372 -0.7315 -1.8002  1.1728
 2796TIP3   OH234498   8.002   7.292   1.375  0.4706  0.0973 -0.2143
 2796TIP3    H134499   8.060   7.220   1.350  0.9151  1.3103 -2.9882
 2796TIP3    H234500   8.055   7.371   1.361 -0.7720  1.0816  0.4889
 2797TIP3   OH234501   7.575   2.173   6.350 -0.2290  0.1387 -0.4677
 2797TIP3    H134502   7.488   2.139   6.329  1.0472 -2.3458 -2.1605
 2797TIP3    H234503   7.597   2.230   6.276 -1.1717  2.5224  0.9720
 2798TIP3   OH234504   1.362   6.570   6.112  0.4162  0.5377  0.2348
 2798TIP3    H134505   1.316   6.509   6.170 -0.9963  0.5977 -0.7557
 2798TIP3    H234506   1.330   6.548   6.024  1.4720  1.3348 -0.3812
 2799TIP3   OH234507   1.616   7.235   1.966 -0.3628 -0.2363 -0.0325
 2799TIP3    H134508   1.577   7.236   2.053  0.7320 -1.1512  0.5037
 2799TIP3    H234509   1.660   7.320   1.958 -0.2647 -0.2420  0.4144
 2800TIP3   OH234510   3.200   7.714   1.335  0.2835 -0.1747 -0.7832
 2800TIP3    H134511   3.170   7.698   1.245  1.5435  0.8600 -1.4246
 2800TIP3    H234512   3.286   7.755   1.324  1.2479 -1.6173  0.9405
 2801TIP3   OH234513   8.031   8.020   0.140  0.1396 -0.4583  0.6547
 2801TIP3    H134514   8.066   7.954   0.200 -0.0362 -0.7345  0.4534
 2801TIP3    H234515   8.062   8.103   0.176  1.0110 -0.6973  0.4683
 2802TIP3   OH234516   2.846   2.330   0.825 -0.2166 -0.3681  0.2609
 2802TIP3    H134517   2.942   2.335   0.828 -0.2780  2.1566  0.1005
 2802TIP3    H234518   2.821   2.295   0.911  0.8006  1.3095  1.3070
 2803TIP3   OH234519   7.916   1.674   6.596 -0.3030  0.1524  0.3236
 2803TIP3    H134520   7.893   1.692   6.505  0.0179 -0.6810  0.0676
 2803TIP3    H234521   7.833   1.645   6.635 -0.5227  0.8623  0.4001
 2804TIP3   OH234522   7.537   1.464   0.253 -0.3756  0.4377 -0.3301
 2804TIP3    H134523   7.544   1.560   0.255  0.4200  0.3828 -0.0522
 2804TIP3    H234524   7.627   1.434   0.268 -0.7412 -0.3560  0.3474
 2805TIP3   OH234525   1.931   1.423   1.205 -0.1808 -0.4828  0.0107
 2805TIP3    H134526   2.014   1.384   1.230 -0.9788 -2.2760  0.0206
 2805TIP3    H234527   1.954   1.488   1.138  1.4079  0.6016  1.5200
 2806TIP3   OH234528   7.081   5.692   6.536 -0.1100 -0.5504  0.0769
 2806TIP3    H134529   7.139   5.745   6.482  0.1052  1.5318  2.1447
 2806TIP3    H234530   7.099   5.602   6.511  0.1365  0.2538 -3.0394
 2807TIP3   OH234531   7.030   2.866   2.140  0.4232  0.1331  0.6382
 2807TIP3    H134532   7.083   2.935   2.180 -1.1291  1.2876  0.7778
 2807TIP3    H234533   6.949   2.865   2.191 -0.2642 -0.6368 -0.4220
 2808TIP3   OH234534   1.008   2.115   1.097 -0.3369 -0.7747 -0.3559
 2808TIP3    H134535   1.071   2.110   1.169 -1.7450 -1.2364  0.9072
 2808TIP3    H234536   1.000   2.208   1.077  1.4996 -0.7784 -1.2738
 2809TIP3   OH234537   5.819   2.439   1.768 -0.1603  0.0116  0.2599
 2809TIP3    H134538   5.774   2.400   1.843 -2.3904  1.8962  0.0355
 2809TIP3    H234539   5.774   2.523   1.754  1.1100  0.3690 -2.3153
 2810TIP3   OH234540   2.994   0.063   1.480 -0.5216  0.4934  0.0862
 2810TIP3    H134541   3.083   0.030   1.492 -0.0235  1.6013 -0.4276
 2810TIP3    H234542   2.941   0.014   1.543  0.5906  0.4185  0.9823
 2811TIP3   OH234543   4.489   5.710   2.143  0.1350  0.1267 -0.2468
 2811TIP3    H134544   4.520   5.620   2.152 -2.1068 -0.7836 -0.8189
 2811TIP3    H234545   4.404   5.711   2.187 -0.2900  1.7267 -1.0090
 2812TIP3   OH234546   7.165   2.312   2.065 -0.6554 -0.0034  0.1515
 2812TIP3    H134547   7.116   2.389   2.036 -0.4018 -0.1904 -0.8080
 2812TIP3    H234548   7.153   2.249   1.994  0.4902 -0.2587  0.1714
 2813TIP3   OH234549   0.626   5.534   1.896 -0.0191  0.0392  0.3307
 2813TIP3    H134550   0.581   5.551   1.813 -0.2947  0.7898  0.6231
 2813TIP3    H234551   0.631   5.439   1.902 -0.5086 -0.0301 -0.2756
 2814TIP3   OH234552   2.051   1.611   7.797  0.4510  0.4703  0.2829
 2814TIP3    H134553   2.123   1.594   7.857  0.9529  1.5381  0.0207
 2814TIP3    H234554   2.042   1.530   7.747  1.6705  0.4017  0.1290
 2815TIP3   OH234555   2.414   2.630   1.714 -0.2595 -0.6735  0.0852
 2815TIP3    H134556   2.444   2.547   1.751  0.5460  0.8952  3.3692
 2815TIP3    H234557   2.328   2.644   1.754 -0.4070  0.0415 -0.4652
 2816TIP3   OH234558   5.484   1.052   0.767  1.0260 -0.4675 -1.2465
 2816TIP3    H134559   5.458   0.963   0.744  0.5996 -0.8176  0.4371
 2816TIP3    H234560   5.575   1.043   0.798 -0.0681 -1.0300  2.2694
 2817TIP3   OH234561   1.690   0.779   5.936  0.1114 -0.0699  0.7886
 2817TIP3    H134562   1.637   0.859   5.934 -1.3179 -0.9529  1.0554
 2817TIP3    H234563   1.675   0.739   5.850  0.3584 -0.3161  0.8611
 2818TIP3   OH234564   3.892   3.633   0.738 -0.6617 -0.1303  0.1059
 2818TIP3    H134565   3.859   3.545   0.757 -0.5307 -0.5495 -1.4619
 2818TIP3    H234566   3.817   3.680   0.702 -0.4549  0.0266 -0.1314
 2819TIP3   OH234567   3.210   6.075   1.010 -0.0199  0.0051  0.3990
 2819TIP3    H134568   3.298   6.112   1.011 -0.1953  0.4855 -0.7461
 2819TIP3    H234569   3.223   5.980   1.021  0.6516  0.0526  0.0488
 2820TIP3   OH234570   0.430   6.774   7.259  0.4729  0.1227 -0.1575
 2820TIP3    H134571   0.350   6.820   7.236 -0.9363 -1.9370  0.3428
 2820TIP3    H234572   0.440   6.788   7.353  0.3056 -0.1849 -0.0925
 2821TIP3   OH234573   6.329   2.972   1.320 -0.2260 -0.5654  0.2897
 2821TIP3    H134574   6.323   3.004   1.230 -0.7179 -1.0781  0.1367
 2821TIP3    H234575   6.396   3.027   1.360 -0.7669  0.3953 -0.0821
 2822TIP3   OH234576   1.154   2.303   0.275  0.7462 -0.6521  0.0840
 2822TIP3    H134577   1.208   2.362   0.327  1.2285 -0.4755 -0.5916
 2822TIP3    H234578   1.091   2.360   0.231 -0.2945 -0.9069  1.2100
 2823TIP3   OH234579   1.038   3.153   6.751 -0.4737 -0.0724  0.0741
 2823TIP3    H134580   1.058   3.158   6.844 -2.2134 -0.7867  0.5315
 2823TIP3    H234581   1.120   3.174   6.707  0.5897 -0.5397  1.7638
 2824TIP3   OH234582   0.482   5.205   1.746  0.2312 -0.0842 -0.0186
 2824TIP3    H134583   0.497   5.255   1.665  0.6216 -0.9695 -0.5178
 2824TIP3    H234584   0.549   5.237   1.806 -0.5003  1.0717  0.2009
 2825TIP3   OH234585   7.582   5.787   6.760 -0.0310 -0.5552  0.3096
 2825TIP3    H134586   7.568   5.728   6.687 -2.2678 -0.5905  0.7005
 2825TIP3    H234587   7.591   5.873   6.720 -2.8329 -0.3221 -0.0537
 2826TIP3   OH234588   5.189   2.767   6.355 -0.4360  0.4154  0.2984
 2826TIP3    H134589   5.195   2.695   6.292 -0.0837  1.4382 -0.8669
 2826TIP3    H234590   5.127   2.736   6.421  0.5312 -1.3883  0.4231
 2827TIP3   OH234591   3.322   6.603   0.999 -0.1035  0.1385 -0.2933
 2827TIP3    H134592   3.348   6.516   0.967 -1.7383 -0.3043 -0.5123
 2827TIP3    H234593   3.397   6.633   1.050  0.9163 -0.9357 -1.1019
 2828TIP3   OH234594   6.366   5.187   5.884  0.0042  0.4258 -0.5578
 2828TIP3    H134595   6.330   5.197   5.795  0.2347 -1.3087 -0.8747
 2828TIP3    H234596   6.330   5.262   5.932  1.9220  2.9332 -2.7096
 2829TIP3   OH234597   0.926   2.680   7.643 -0.0171 -0.3805 -0.2339
 2829TIP3    H134598   0.852   2.629   7.608 -1.2598  0.2116  1.4052
 2829TIP3    H234599   0.890   2.767   7.658  1.7926  0.7487 -1.9632
 2830TIP3   OH234600   0.564   7.797   1.221  0.4247 -0.8940  0.8432
 2830TIP3    H134601   0.563   7.752   1.305  2.8362 -1.2500  0.7579
 2830TIP3    H234602   0.570   7.890   1.243  1.4812 -1.0093  1.1110
 2831TIP3   OH234603   0.979   4.136   7.398 -0.1457 -0.7677 -0.4742
 2831TIP3    H134604   0.951   4.071   7.333 -1.4405 -0.6578 -0.0576
 2831TIP3    H234605   0.990   4.217   7.348  0.3125 -1.0276 -0.7968
 2832TIP3   OH234606   2.157   0.471   1.128 -0.1728 -0.4016 -0.4394
 2832TIP3    H134607   2.078   0.420   1.114  1.0367 -2.4010 -0.4098
 2832TIP3    H234608   2.154   0.539   1.061 -1.0060 -1.5868 -1.6597
 2833TIP3   OH234609   7.125   3.497   0.438  0.2622 -0.7015 -0.1443
 2833TIP3    H134610   7.051   3.516   0.379  1.2274 -0.3638 -1.2888
 2833TIP3    H234611   7.105   3.410   0.473 -0.4328 -0.8373 -0.8354
 2834TIP3   OH234612   3.238   1.928   7.778 -0.0952  0.0457 -0.8975
 2834TIP3    H134613   3.288   1.993   7.827  0.0869 -1.3606  0.8802
 2834TIP3    H234614   3.161   1.976   7.746 -0.1328  1.0771  0.6235
 2835TIP3   OH234615   5.533   2.794   6.249  0.0159 -0.3409 -0.1709
 2835TIP3    H134616   5.491   2.710   6.233  0.4600 -0.6854  0.4650
 2835TIP3    H234617   5.601   2.776   6.314  0.3629  0.4344 -0.3008
 2836TIP3   OH234618   1.734   6.927   1.304 -0.3845  0.4175 -0.5065
 2836TIP3    H134619   1.740   6.832   1.303 -2.2154  0.2725 -0.7658
 2836TIP3    H234620   1.682   6.947   1.382  3.4744  1.5594  2.1357
 2837TIP3   OH234621   5.685   5.830   2.070  0.2376 -0.4282 -0.5897
 2837TIP3    H134622   5.645   5.793   2.149  0.0418 -0.1316 -0.5514
 2837TIP3    H234623   5.681   5.924   2.083 -3.9420 -0.0377 -2.8996
 2838TIP3   OH234624   3.383   7.919   7.363 -0.2478 -0.1085 -0.1287
 2838TIP3    H134625   3.326   7.984   7.323  0.0553 -0.2086 -0.7409
 2838TIP3    H234626   3.337   7.892   7.443 -0.9909 -0.0985 -0.5436
 2839TIP3   OH234627   5.077   5.873   1.834 -1.0293 -0.0586  0.7619
 2839TIP3    H134628   5.103   5.803   1.775  0.3369  0.7605  0.3455
 2839TIP3    H234629   5.029   5.935   1.779 -0.2076  0.4493  0.5923
 2840TIP3   OH234630   7.122   4.017   6.690 -0.4358 -0.3551 -0.2356
 2840TIP3    H134631   7.111   4.073   6.614  0.2018 -0.4147 -0.3762
 2840TIP3    H234632   7.128   4.078   6.764 -0.8299 -0.2893 -0.2530
 2841TIP3   OH234633   4.457   3.073   0.971  0.0596 -0.1381 -0.1063
 2841TIP3    H134634   4.391   3.087   0.904 -2.5803  1.4505  2.5795
 2841TIP3    H234635   4.408   3.042   1.048  2.5698  0.1348  1.7544
 2842TIP3   OH234636   3.798   4.461   0.351 -0.9475 -0.4313  0.3552
 2842TIP3    H134637   3.736   4.523   0.314 -1.4508 -1.1841 -0.0941
 2842TIP3    H234638   3.753   4.376   0.346  0.6885 -1.2757 -1.4345
 2843TIP3   OH234639   5.469   0.779   0.675 -0.2241 -0.1293  0.2906
 2843TIP3    H134640   5.547   0.756   0.725  0.2282  2.0002  0.6917
 2843TIP3    H234641   5.466   0.716   0.603  1.2674 -0.8946  0.8661
 2844TIP3   OH234642   0.242   6.505   0.360  1.3457  0.3650 -0.6749
 2844TIP3    H134643   0.183   6.521   0.286 -0.5425  0.9510  0.8759
 2844TIP3    H234644   0.279   6.419   0.343  0.4247  0.1951 -1.9569
 2845TIP3   OH234645   6.870   7.732   2.274 -0.3886  0.2670  0.5072
 2845TIP3    H134646   6.945   7.744   2.332 -1.0741  0.3729  1.3945
 2845TIP3    H234647   6.817   7.810   2.288  0.5832  1.5018 -2.0934
 2846TIP3   OH234648   5.796   1.876   6.428 -0.2475  0.0177 -0.0282
 2846TIP3    H134649   5.838   1.928   6.496 -0.6584 -1.4383  1.3897
 2846TIP3    H234650   5.767   1.940   6.363  1.4760  1.3143  0.4124
 2847TIP3   OH234651   0.410   6.099   6.366 -0.2573  1.0775 -0.2932
 2847TIP3    H134652   0.337   6.037   6.365 -1.1923  2.1332 -0.4041
 2847TIP3    H234653   0.368   6.184   6.354  0.8471  1.8770  1.1565
 2848TIP3   OH234654   6.797   1.215   1.516 -0.2529  0.3299  0.2694
 2848TIP3    H134655   6.720   1.178   1.473  1.1211 -0.1665 -1.8861
 2848TIP3    H234656   6.770   1.304   1.541 -2.5081 -0.8549  2.4966
 2849TIP3   OH234657   5.335   1.358   1.620 -0.2319  0.1149  0.2945
 2849TIP3    H134658   5.304   1.417   1.552  0.3925  1.0656  0.8117
 2849TIP3    H234659   5.304   1.397   1.702 -2.1038 -1.6952  0.5339
 2850TIP3   OH234660   7.667   2.391   7.129  0.3417 -0.2694 -0.1460
 2850TIP3    H134661   7.609   2.466   7.112  0.6587  0.3966  1.4745
 2850TIP3    H234662   7.716   2.380   7.048 -0.0861  0.9506 -0.5987
 2851TIP3   OH234663   0.417   1.590   6.228  0.0657 -0.2530  0.4832
 2851TIP3    H134664   0.354   1.573   6.297 -0.3004 -1.2172 -0.0604
 2851TIP3    H234665   0.392   1.530   6.158  3.0031 -2.5071  1.1585
 2852TIP3   OH234666   5.665   0.392   5.963 -0.1495  0.2165 -0.3593
 2852TIP3    H134667   5.625   0.430   5.885 -1.0645  0.0167  0.0088
 2852TIP3    H234668   5.645   0.298   5.957  0.0273  0.1565 -0.0339
 2853TIP3   OH234669   2.687   4.941   2.486 -0.1072 -0.1018 -0.8975
 2853TIP3    H134670   2.688   4.922   2.393  1.0682  0.3147 -0.9799
 2853TIP3    H234671   2.757   4.887   2.523 -0.8399 -0.5952 -0.1786
 2854TIP3   OH234672   0.481   7.229   6.044  0.7210 -0.2295  0.1442
 2854TIP3    H134673   0.451   7.256   5.957 -0.5866 -0.5565  0.4790
 2854TIP3    H234674   0.481   7.310   6.095 -1.1437 -0.4536  0.5617
 2855TIP3   OH234675   2.050   4.985   6.956 -0.1483 -0.6420 -0.0157
 2855TIP3    H134676   2.132   4.955   6.916  0.8772 -0.2977  1.7371
 2855TIP3    H234677   2.045   5.078   6.935  1.6834  0.1605  2.5678
 2856TIP3   OH234678   3.669   3.474   0.082 -0.0988  0.2000 -0.6247
 2856TIP3    H134679   3.661   3.398   0.023  2.2757 -0.6924  0.0951
 2856TIP3    H234680   3.637   3.441   0.167 -1.4859  0.8373 -0.8674
 2857TIP3   OH234681   3.141   3.847   0.165  0.0648  0.4151 -0.5358
 2857TIP3    H134682   3.080   3.854   0.091  0.0213  0.3243 -0.5081
 2857TIP3    H234683   3.168   3.938   0.182 -0.5942  0.5376 -0.1015
 2858TIP3   OH234684   2.370   5.250   5.762 -0.6508 -0.2449 -0.2811
 2858TIP3    H134685   2.369   5.168   5.812 -0.4999  0.0253  0.1714
 2858TIP3    H234686   2.359   5.319   5.828 -1.0984  0.0873 -0.6949
 2859TIP3   OH234687   5.400   4.685   5.440  0.5733 -0.2092  0.2362
 2859TIP3    H134688   5.312   4.707   5.408 -1.7124 -1.5132  4.7568
 2859TIP3    H234689   5.415   4.596   5.408 -0.9248 -0.8862  1.2463
 2860TIP3   OH234690   3.349   1.952   1.276 -0.2822  0.1341 -0.2800
 2860TIP3    H134691   3.257   1.959   1.252 -0.4063  0.8369  0.3774
 2860TIP3    H234692   3.359   2.008   1.352  0.6244 -0.1904 -0.1433
 2861TIP3   OH234693   1.428   5.507   6.729 -0.5215  0.6788 -0.0703
 2861TIP3    H134694   1.506   5.457   6.750 -0.1747  1.3724  0.3309
 2861TIP3    H234695   1.438   5.589   6.778 -1.9756  0.3669  0.8116
 2862TIP3   OH234696   6.649   3.568   6.847 -0.1240 -0.2052 -0.2575
 2862TIP3    H134697   6.740   3.540   6.855  0.0292 -0.0633 -1.3402
 2862TIP3    H234698   6.600   3.488   6.829 -0.0073 -0.0983 -1.0791
 2863TIP3   OH234699   0.673   2.843   7.433 -0.3725 -0.6997 -0.2497
 2863TIP3    H134700   0.610   2.914   7.418 -1.2013 -1.1396  0.9759
 2863TIP3    H234701   0.741   2.882   7.487  0.7856 -0.0545 -2.0898
 2864TIP3   OH234702   5.850   7.867   6.734  0.1278 -0.5340 -0.0406
 2864TIP3    H134703   5.893   7.801   6.788  0.2692  0.7005  1.4418
 2864TIP3    H234704   5.850   7.946   6.789 -1.0129  0.3983 -1.3187
 2865TIP3   OH234705   5.667   3.770   0.470 -0.3434  0.0157 -0.0650
 2865TIP3    H134706   5.638   3.816   0.391 -2.1103 -1.0229 -0.0913
 2865TIP3    H234707   5.738   3.823   0.504 -0.9474  1.6442 -1.1827
 2866TIP3   OH234708   0.017   6.487   1.915 -0.3103  0.3799  0.0687
 2866TIP3    H134709  -0.027   6.568   1.890 -0.4933  1.0416  2.2552
 2866TIP3    H234710  -0.044   6.443   1.974  0.3448 -0.6955 -0.0149
 2867TIP3   OH234711   8.021   2.583   0.274 -0.6897  0.1849  0.2561
 2867TIP3    H134712   7.964   2.556   0.346  0.0352  2.5083  1.8510
 2867TIP3    H234713   7.973   2.654   0.231 -0.0272  0.5801  0.1506
 2868TIP3   OH234714   3.795   7.525   7.666 -0.8380  0.0295 -0.7565
 2868TIP3    H134715   3.771   7.590   7.599 -1.3449 -1.4213 -2.0319
 2868TIP3    H234716   3.713   7.480   7.685 -0.2108 -1.2838 -1.0729
 2869TIP3   OH234717   3.477   6.284   7.460  0.4867 -0.5981  0.3570
 2869TIP3    H134718   3.507   6.240   7.540 -0.8828 -1.1541  0.5946
 2869TIP3    H234719   3.391   6.246   7.443 -0.2640  1.1823 -0.0747
 2870TIP3   OH234720   3.869   1.692   0.617 -0.1293 -0.6381 -0.7048
 2870TIP3    H134721   3.802   1.684   0.549 -1.1205  1.2568  0.0048
 2870TIP3    H234722   3.934   1.752   0.580  1.2246 -2.3666 -1.3405
 2871TIP3   OH234723   2.142   5.717   0.157 -0.1762  0.3482 -0.4105
 2871TIP3    H134724   2.229   5.756   0.170  0.3270 -0.7206 -0.5221
 2871TIP3    H234725   2.087   5.791   0.132  0.3883  1.2860  0.9820
 2872TIP3   OH234726   5.005   2.086   7.610  0.0621  0.0369 -0.3076
 2872TIP3    H134727   5.086   2.137   7.606 -0.5419  1.0240 -0.3974
 2872TIP3    H234728   4.937   2.151   7.629 -1.1198 -0.2713 -2.9456
 2873TIP3   OH234729   7.424   5.305   6.464 -0.2692 -0.5843 -0.1065
 2873TIP3    H134730   7.432   5.259   6.381 -0.9775 -0.7245 -0.1036
 2873TIP3    H234731   7.336   5.341   6.464  0.3399  1.0057 -0.2090
 2874TIP3   OH234732   1.872   2.273   6.931 -0.3108  0.5690 -0.1059
 2874TIP3    H134733   1.919   2.196   6.899  2.0944  1.4377  1.1521
 2874TIP3    H234734   1.938   2.327   6.974 -2.4880  1.7877  1.9982
 2875TIP3   OH234735   1.824   1.176   5.827 -0.1336  0.5377  0.3920
 2875TIP3    H134736   1.731   1.199   5.820 -0.4810 -0.7748  0.4034
 2875TIP3    H234737   1.847   1.195   5.918 -0.7345 -0.2392  0.7266
 2876TIP3   OH234738   0.031   0.738   6.152 -0.3026 -0.2556 -0.0541
 2876TIP3    H134739   0.123   0.720   6.131 -0.6195 -0.6421 -1.1527
 2876TIP3    H234740   0.008   0.813   6.099 -1.0927 -1.2053 -1.0982
 2877TIP3   OH234741   5.302   8.095   0.794 -0.0286 -0.0796  0.0795
 2877TIP3    H134742   5.272   8.015   0.837  1.4364 -0.2359  0.8686
 2877TIP3    H234743   5.233   8.159   0.811 -0.3608 -0.6741  1.0174
 2878TIP3   OH234744   6.606   4.140   6.582  0.6256 -0.5073  0.4990
 2878TIP3    H134745   6.606   4.103   6.671 -1.3960 -1.4205  0.1756
 2878TIP3    H234746   6.598   4.064   6.525 -0.2895  0.2085 -0.3507
 2879TIP3   OH234747   3.802   7.859   5.797  0.6052  0.6754  0.3780
 2879TIP3    H134748   3.771   7.827   5.882  0.9057  0.3937  0.3836
 2879TIP3    H234749   3.722   7.875   5.748  0.3873 -2.4997 -0.5169
 2880TIP3   OH234750   4.507   4.741   0.887 -0.3796 -0.2919 -0.6836
 2880TIP3    H134751   4.494   4.662   0.940  2.0677 -0.4295 -0.1447
 2880TIP3    H234752   4.467   4.720   0.803 -2.5370 -0.8528  0.3992
 2881TIP3   OH234753   1.866   1.011   2.177  0.2121 -0.1880 -0.1012
 2881TIP3    H134754   1.851   1.097   2.217 -0.5150  0.4811 -1.7019
 2881TIP3    H234755   1.875   1.030   2.084 -1.1204 -1.9579 -0.6381
 2882TIP3   OH234756   6.539   1.028   6.124 -0.0337 -0.2958  0.4125
 2882TIP3    H134757   6.612   1.017   6.063  0.7503  0.6582  1.1279
 2882TIP3    H234758   6.493   1.106   6.093  0.7948  0.6297  1.3905
 2883TIP3   OH234759   0.358   0.827   1.621  0.5767 -0.2269 -0.4876
 2883TIP3    H134760   0.438   0.777   1.636 -0.5693 -1.4416  2.1800
 2883TIP3    H234761   0.294   0.762   1.593 -0.2330  0.1913  0.3493
 2884TIP3   OH234762   5.495   1.919   7.547 -0.0603 -0.0214 -0.0317
 2884TIP3    H134763   5.566   1.922   7.483 -0.3714  1.1038 -0.3553
 2884TIP3    H234764   5.417   1.941   7.496 -0.2169  1.5941  0.8476
 2885TIP3   OH234765   0.751   7.802   2.027 -0.3873  0.2503 -0.2028
 2885TIP3    H134766   0.669   7.760   2.055 -0.3259 -0.5516 -1.1889
 2885TIP3    H234767   0.807   7.800   2.105 -0.5962 -0.9943 -0.0708
 2886TIP3   OH234768   1.641   4.339   0.895  0.4900 -0.3709 -0.7447
 2886TIP3    H134769   1.621   4.363   0.986 -1.5580  0.7819 -1.4075
 2886TIP3    H234770   1.621   4.246   0.889  1.5884 -0.6807  0.2015
 2887TIP3   OH234771   2.544   4.081   6.737 -0.3685 -0.1028 -0.3610
 2887TIP3    H134772   2.582   4.117   6.658  1.2857 -1.0892 -0.0620
 2887TIP3    H234773   2.610   4.095   6.805 -0.3793 -2.0778  0.1312
 2888TIP3   OH234774   7.514   3.867   0.830  0.2251 -0.0545 -0.3160
 2888TIP3    H134775   7.546   3.801   0.769 -0.1490 -1.1041  0.5864
 2888TIP3    H234776   7.572   3.859   0.906  0.1488  0.6354 -0.1804
 2889TIP3   OH234777   0.478   3.178   1.019  0.2046  0.3691  0.1284
 2889TIP3    H134778   0.516   3.091   1.037 -0.9946 -0.3947 -0.8988
 2889TIP3    H234779   0.418   3.193   1.092  0.8576  0.6107  0.6221
 2890TIP3   OH234780   1.717   0.653   0.780  0.0821 -0.1645  0.0728
 2890TIP3    H134781   1.642   0.677   0.725  0.6465  0.6768 -0.3623
 2890TIP3    H234782   1.685   0.662   0.870 -0.5487 -0.5443 -0.1080
 2891TIP3   OH234783   7.744   4.626   0.499 -0.3326 -0.4825 -0.0354
 2891TIP3    H134784   7.755   4.592   0.410 -0.1994  1.6036 -0.8813
 2891TIP3    H234785   7.777   4.716   0.495 -2.1272  0.3424  1.6230
 2892TIP3   OH234786   6.286   5.900   1.423  0.0476  0.2791 -0.1566
 2892TIP3    H134787   6.339   5.880   1.501  1.5454  0.4595 -1.0953
 2892TIP3    H234788   6.215   5.835   1.425 -0.4340  0.7996  1.7848
 2893TIP3   OH234789   5.301   1.602   7.177  0.1992 -0.1999  0.1046
 2893TIP3    H134790   5.296   1.644   7.262 -0.9203 -0.4602  0.1758
 2893TIP3    H234791   5.361   1.658   7.126  0.2628  0.3796  0.8055
 2894TIP3   OH234792   5.301   0.118   2.063 -0.2477 -0.1591 -0.4746
 2894TIP3    H134793   5.246   0.125   2.140  1.8678  0.3482  1.0827
 2894TIP3    H234794   5.390   0.105   2.097  1.1612  2.4597 -2.6626
 2895TIP3   OH234795   1.464   3.316   2.096  0.5022 -1.0839  0.6248
 2895TIP3    H134796   1.499   3.403   2.116 -1.3894 -0.0881 -0.1256
 2895TIP3    H234797   1.412   3.292   2.173 -0.3863 -0.7441  0.1494
 2896TIP3   OH234798   4.374   6.890   0.973  0.0663  0.5858  0.1912
 2896TIP3    H134799   4.367   6.865   1.065  3.4893  2.0554  1.0345
 2896TIP3    H234800   4.395   6.983   0.976 -0.6200  0.8677 -2.1646
 2897TIP3   OH234801   5.847   4.501   6.875 -0.1063 -0.2589  0.8239
 2897TIP3    H134802   5.819   4.471   6.789  1.8835  0.1741 -0.0345
 2897TIP3    H234803   5.768   4.495   6.930 -1.6904  0.3632 -1.2400
 2898TIP3   OH234804   5.736   4.546   7.365  0.3748 -0.1745 -0.0226
 2898TIP3    H134805   5.813   4.490   7.369  2.0388  1.9605 -0.4241
 2898TIP3    H234806   5.715   4.552   7.272  1.2256  1.1195 -0.1551
 2899TIP3   OH234807   5.248   0.443   6.340 -0.2564 -0.5544  0.3422
 2899TIP3    H134808   5.338   0.438   6.309 -0.0940 -0.0138  0.7054
 2899TIP3    H234809   5.235   0.360   6.387  0.1233 -0.5392  0.4802
 2900TIP3   OH234810   2.346   6.698   1.723 -0.2414  0.4319  0.1207
 2900TIP3    H134811   2.252   6.702   1.741 -0.4210 -3.2940  0.7860
 2900TIP3    H234812   2.355   6.732   1.634 -1.9487  2.2408  0.5749
 2901TIP3   OH234813   1.469   1.591   1.384 -0.5304  0.1231 -0.1482
 2901TIP3    H134814   1.546   1.586   1.327  1.3552  2.1271  2.0339
 2901TIP3    H234815   1.416   1.660   1.345  0.5094  1.1431  0.1841
 2902TIP3   OH234816   7.086   1.168   5.218 -0.8109 -0.0476  0.6223
 2902TIP3    H134817   7.009   1.143   5.269 -0.6526  1.8927  1.8952
 2902TIP3    H234818   7.054   1.234   5.156 -0.6490 -1.1529 -0.7152
 2903TIP3   OH234819   1.231   7.000   0.685  0.0112  0.1985 -0.1589
 2903TIP3    H134820   1.204   6.912   0.712  0.6397 -0.1804 -0.7249
 2903TIP3    H234821   1.208   7.004   0.592 -0.1878  0.7079 -0.0898
 2904TIP3   OH234822   1.535   6.434   6.668 -0.0208  0.6018 -0.6684
 2904TIP3    H134823   1.514   6.421   6.761  1.2467 -3.3071 -0.7497
 2904TIP3    H234824   1.456   6.406   6.622 -0.4779  2.0890 -0.8391
 2905TIP3   OH234825   2.872   0.771   6.242 -0.3835  0.1940  0.5342
 2905TIP3    H134826   2.796   0.712   6.243  0.6962 -1.2943 -0.8503
 2905TIP3    H234827   2.911   0.758   6.155  0.8353  1.7522  0.8137
 2906TIP3   OH234828   2.528   0.532   6.647  0.3634 -0.3583  0.0078
 2906TIP3    H134829   2.575   0.544   6.730  0.2210 -1.0837  0.2029
 2906TIP3    H234830   2.579   0.467   6.599  0.5703  0.2244 -0.5815
 2907TIP3   OH234831   0.986   3.784   5.682 -0.3794  0.0225 -0.0477
 2907TIP3    H134832   0.945   3.737   5.609 -1.1013  1.6925 -0.7780
 2907TIP3    H234833   0.960   3.734   5.760  1.5368 -2.5927 -0.9400
 2908TIP3   OH234834   7.903   0.790   1.438  0.2416 -0.5454 -0.1905
 2908TIP3    H134835   7.847   0.857   1.478  0.7837  1.2066 -2.1889
 2908TIP3    H234836   7.861   0.770   1.354  1.7138 -0.3842 -1.0053
 2909TIP3   OH234837   0.575   7.066   6.668 -0.3076 -0.4354 -0.4203
 2909TIP3    H134838   0.487   7.043   6.637 -0.0052  1.1424 -2.7851
 2909TIP3    H234839   0.628   7.069   6.588  1.1017  1.9311  0.5028
 2910TIP3   OH234840   6.762   0.026   0.078 -0.2429 -0.5838  0.3579
 2910TIP3    H134841   6.856   0.040   0.064 -0.1798 -1.0042  0.3350
 2910TIP3    H234842   6.736  -0.030   0.005 -0.8566  0.8428 -0.5437
 2911TIP3   OH234843   0.665   6.102   7.213 -0.1875 -0.1417  0.2152
 2911TIP3    H134844   0.576   6.092   7.248 -0.1885  0.1381  0.2988
 2911TIP3    H234845   0.653   6.148   7.130 -0.0193  1.1629  0.8898
 2912TIP3   OH234846   5.627   5.455   0.618  0.1534 -0.2149  0.2362
 2912TIP3    H134847   5.616   5.547   0.642 -0.1638 -0.3740  0.7234
 2912TIP3    H234848   5.573   5.444   0.539 -0.1871 -0.0965  0.4521
 2913TIP3   OH234849   5.784   2.533   1.062  0.1368 -0.3778  0.2725
 2913TIP3    H134850   5.798   2.598   0.993 -2.3614  0.0347  0.0825
 2913TIP3    H234851   5.707   2.483   1.034  1.3143 -2.7341  0.9650
 2914TIP3   OH234852   7.258   1.739   5.830  0.0165  0.0374 -0.6977
 2914TIP3    H134853   7.237   1.725   5.738 -1.0975  0.5630 -0.5362
 2914TIP3    H234854   7.200   1.811   5.857  1.0567  0.5832  0.1441
 2915TIP3   OH234855   7.916   7.713   7.383 -0.1937 -0.2475 -0.0031
 2915TIP3    H134856   7.903   7.786   7.324 -0.9764 -1.6818 -1.7134
 2915TIP3    H234857   7.827   7.685   7.407  0.1004  0.2570  1.8400
 2916TIP3   OH234858   6.787   2.424   5.511  0.2899 -0.0720 -0.5680
 2916TIP3    H134859   6.798   2.505   5.561  3.3609  1.4019 -3.3156
 2916TIP3    H234860   6.864   2.371   5.534 -0.6461 -1.3962 -0.3552
 2917TIP3   OH234861   3.652   2.493   6.656  0.3556 -1.0457  0.2960
 2917TIP3    H134862   3.567   2.537   6.662 -0.1156 -1.8406 -0.3932
 2917TIP3    H234863   3.712   2.551   6.703 -0.5334 -0.3994  0.6637
 2918TIP3   OH234864   4.724   1.772   0.366  0.6634  0.3097  0.4425
 2918TIP3    H134865   4.651   1.736   0.315  0.9894  0.3115 -0.0300
 2918TIP3    H234866   4.713   1.867   0.360  0.3164  0.3043  0.9425
 2919TIP3   OH234867   1.783   2.062   1.512  0.2019 -0.4268 -0.0458
 2919TIP3    H134868   1.862   2.031   1.469 -0.1933 -0.5361 -0.7093
 2919TIP3    H234869   1.724   1.987   1.511 -0.2996 -0.0318 -0.5318
 2920TIP3   OH234870   4.625   1.033   7.059  0.1452  0.3863 -0.4590
 2920TIP3    H134871   4.586   0.955   7.098 -0.4852  0.5087 -0.8433
 2920TIP3    H234872   4.602   1.104   7.119  0.3198  0.3543 -0.3540
 2921TIP3   OH234873   6.254   1.998   6.472  0.0951 -0.4497  0.2154
 2921TIP3    H134874   6.208   1.979   6.391 -0.1117 -0.9058  0.4338
 2921TIP3    H234875   6.341   1.958   6.460  0.9651  1.5838 -0.7414
 2922TIP3   OH234876   1.433   4.007   0.303 -0.2108  0.6513  0.4956
 2922TIP3    H134877   1.488   4.079   0.273  2.5046  0.8744  5.0377
 2922TIP3    H234878   1.492   3.931   0.305 -1.9506 -0.8207 -0.4559
 2923TIP3   OH234879   6.686   4.787   7.583  0.1738 -0.6058 -0.3893
 2923TIP3    H134880   6.597   4.780   7.548 -0.6200  3.3264  0.3761
 2923TIP3    H234881   6.707   4.698   7.612 -4.2724 -1.3778  1.2106
 2924TIP3   OH234882   0.759   0.508   7.598  0.4328  0.6972 -0.2091
 2924TIP3    H134883   0.703   0.540   7.527 -0.7809  1.1292  0.9088
 2924TIP3    H234884   0.786   0.587   7.644  0.9282  0.3925  0.0321
 2925TIP3   OH234885   6.888   5.860   7.902 -0.1809  0.2906 -0.0578
 2925TIP3    H134886   6.969   5.847   7.952  0.4417 -0.7639 -1.2586
 2925TIP3    H234887   6.918   5.891   7.816 -0.9887 -0.7896 -0.7509
 2926TIP3   OH234888   6.001   4.618   7.075 -0.0278  0.2008  0.2977
 2926TIP3    H134889   5.960   4.559   7.012  2.5243 -1.4416  0.0127
 2926TIP3    H234890   6.066   4.666   7.024  1.0611 -0.0984  1.3375
 2927TIP3   OH234891   7.645   6.743   0.946 -0.3153 -0.2416  0.0307
 2927TIP3    H134892   7.603   6.828   0.933  0.3551 -0.1977 -2.4087
 2927TIP3    H234893   7.572   6.681   0.952 -0.8734 -0.0068 -2.8351
 2928TIP3   OH234894   4.727   2.514   1.187  0.3791 -0.3345 -0.1528
 2928TIP3    H134895   4.655   2.574   1.206 -0.9686 -2.3519  1.4480
 2928TIP3    H234896   4.781   2.515   1.266 -0.0772 -1.7294  0.2106
 2929TIP3   OH234897   6.139   5.911   0.858 -0.1135 -0.2127  0.7135
 2929TIP3    H134898   6.220   5.874   0.892 -0.7216 -0.6422  1.7563
 2929TIP3    H234899   6.166   5.988   0.808  1.0792 -1.3499 -0.4652
 2930TIP3   OH234900   2.308   2.959   6.083 -0.3112  0.2343 -0.3425
 2930TIP3    H134901   2.338   3.045   6.113  0.4483  0.1051 -0.7072
 2930TIP3    H234902   2.244   2.931   6.148  0.8244  0.2478  0.8055
 2931TIP3   OH234903   6.787   2.811   2.282 -0.8379  0.0426 -0.4507
 2931TIP3    H134904   6.772   2.825   2.376  0.3848 -0.6416 -0.1372
 2931TIP3    H234905   6.701   2.825   2.242 -0.7344  4.0717  0.2706
 2932TIP3   OH234906   3.294   3.374   2.266 -0.1502  0.1385  0.5748
 2932TIP3    H134907   3.201   3.382   2.249 -0.4835  0.0524  2.2048
 2932TIP3    H234908   3.329   3.333   2.187 -1.3778  0.7094 -0.2966
 2933TIP3   OH234909   6.385   4.849   5.856 -0.0426  0.0429  0.2864
 2933TIP3    H134910   6.369   4.820   5.766  0.4731 -1.4123  0.6307
 2933TIP3    H234911   6.303   4.832   5.901  0.2271 -0.8376  0.4639
 2934TIP3   OH234912   0.275   7.877   6.538 -0.0139  0.2230  0.2054
 2934TIP3    H134913   0.238   7.872   6.450 -3.1660 -0.2332  1.4301
 2934TIP3    H234914   0.296   7.969   6.550  0.9834  0.2030 -1.1858
 2935TIP3   OH234915   0.482   7.902   0.676  0.1093  0.4499  0.4230
 2935TIP3    H134916   0.577   7.904   0.663  0.2841 -3.2616  0.1885
 2935TIP3    H234917   0.471   7.866   0.764 -0.9707 -2.1376 -0.6843
 2936TIP3   OH234918   3.150   3.312   7.239  0.3024 -0.1631  0.3684
 2936TIP3    H134919   3.223   3.373   7.244 -1.4689  2.0001  1.4776
 2936TIP3    H234920   3.177   3.247   7.174  3.5780 -0.0633  1.4522
 2937TIP3   OH234921   7.905   0.932   1.946  0.2002 -0.1780 -0.1177
 2937TIP3    H134922   7.984   0.879   1.956  0.6484  0.5462  0.2421
 2937TIP3    H234923   7.937   1.014   1.907 -0.1302  0.7111  1.4003
 2938TIP3   OH234924   2.429   3.629   6.934  0.0758  0.0836  0.5047
 2938TIP3    H134925   2.403   3.676   6.855 -1.6144 -1.5871 -0.0160
 2938TIP3    H234926   2.445   3.539   6.905 -2.2051 -0.9892  2.2375
 2939TIP3   OH234927   2.112   5.498   6.818  0.0101  0.7265 -0.3926
 2939TIP3    H134928   2.047   5.534   6.878  0.9246  1.3342  0.2619
 2939TIP3    H234929   2.196   5.516   6.860  0.5719 -0.9575 -0.7293
 2940TIP3   OH234930   5.732   6.741   6.759  0.5320 -0.0096 -0.5870
 2940TIP3    H134931   5.741   6.645   6.761 -1.4781 -0.2575 -0.7556
 2940TIP3    H234932   5.703   6.764   6.848 -2.4487 -0.0697 -1.4236
 2941TIP3   OH234933   7.715   1.583   1.524  0.4580 -0.3441  0.2740
 2941TIP3    H134934   7.633   1.632   1.517  0.3342 -0.6261 -0.2965
 2941TIP3    H234935   7.693   1.495   1.495  1.3085 -0.0271 -1.4640
 2942TIP3   OH234936   1.589   3.714   1.695 -0.2367 -0.1610  0.2318
 2942TIP3    H134937   1.524   3.778   1.725 -0.6485 -1.0720  1.3446
 2942TIP3    H234938   1.664   3.767   1.669 -1.1391  0.8684 -0.3903
 2943TIP3   OH234939   7.314   7.327   5.762 -0.0548  1.0076  0.6592
 2943TIP3    H134940   7.395   7.278   5.752  0.0545  1.3480 -0.2323
 2943TIP3    H234941   7.250   7.278   5.711 -0.2978  0.9914  0.9772
 2944TIP3   OH234942   7.684   4.494   1.345 -0.2689 -0.0984 -0.0949
 2944TIP3    H134943   7.597   4.470   1.377  0.1118 -1.1337  0.1834
 2944TIP3    H234944   7.667   4.555   1.273 -1.1962  0.4402  0.5585
 2945TIP3   OH234945   2.019   0.821   0.941  0.3595 -0.2069 -0.0627
 2945TIP3    H134946   2.010   0.767   1.020 -0.5587  0.3986  0.2671
 2945TIP3    H234947   2.054   0.762   0.875  0.5427 -0.8862  0.6280
 2946TIP3   OH234948   4.181   4.128   0.334  0.2483 -0.0755  0.2569
 2946TIP3    H134949   4.234   4.062   0.380  0.4850  2.0404  3.3952
 2946TIP3    H234950   4.246   4.181   0.287  0.2576 -0.9289 -0.7072
 2947TIP3   OH234951   0.532   3.682   7.745  0.4039 -0.7086 -0.5687
 2947TIP3    H134952   0.514   3.601   7.793  0.6728 -0.5889 -0.2663
 2947TIP3    H234953   0.622   3.705   7.769  0.5038 -0.5843 -1.0383
 2948TIP3   OH234954   4.455   2.101   2.245 -0.8017  0.3396  0.1814
 2948TIP3    H134955   4.380   2.100   2.186 -0.0992 -2.5261 -0.8284
 2948TIP3    H234956   4.458   2.012   2.281 -0.1250  1.4644  3.2147
 2949TIP3   OH234957   1.172   5.695   6.601  0.3507 -0.2458  0.4081
 2949TIP3    H134958   1.220   5.666   6.678  0.6873  0.9390  0.6606
 2949TIP3    H234959   1.234   5.748   6.552  0.6253 -2.2058 -1.4958
 2950TIP3   OH234960   2.364   1.628   6.564  0.5699  0.8876  0.6491
 2950TIP3    H134961   2.335   1.612   6.653 -0.3928 -1.6430 -0.0336
 2950TIP3    H234962   2.438   1.570   6.552  0.3875  0.8402 -0.3502
 2951TIP3   OH234963   3.053   3.042   0.919  0.2138  0.4851 -0.2370
 2951TIP3    H134964   3.025   3.013   0.832 -2.4391 -0.2765  0.7576
 2951TIP3    H234965   3.056   3.137   0.913 -0.0103  0.4425 -1.1583
 2952TIP3   OH234966   1.761   4.367   7.459 -0.2476 -0.1974 -0.1474
 2952TIP3    H134967   1.702   4.429   7.501 -0.0364 -0.0034 -0.1386
 2952TIP3    H234968   1.832   4.420   7.424 -0.4980 -0.3331 -0.8896
 2953TIP3   OH234969   6.851   3.409   0.393  0.0822  0.0649 -0.0408
 2953TIP3    H134970   6.763   3.425   0.428  0.7533  2.1521  0.8447
 2953TIP3    H234971   6.894   3.356   0.460 -0.7896 -1.9160 -0.9754
 2954TIP3   OH234972   7.152   5.753   1.913 -0.4924 -0.2289 -0.0158
 2954TIP3    H134973   7.173   5.757   1.820 -0.3017 -2.4175 -0.1285
 2954TIP3    H234974   7.237   5.757   1.957 -0.5128 -0.0850  0.0101
 2955TIP3   OH234975   2.007   3.961   7.391  0.0996  0.6588  0.2385
 2955TIP3    H134976   1.980   3.915   7.311 -1.7827 -1.6136  2.0519
 2955TIP3    H234977   2.090   3.922   7.415 -0.0676  0.2746  0.1971
 2956TIP3   OH234978   1.658   5.006   0.602 -0.2924  0.8309  0.4855
 2956TIP3    H134979   1.575   5.049   0.581 -0.3423  0.6389  0.2815
 2956TIP3    H234980   1.681   4.959   0.522 -0.4512  0.1370  0.8416
 2957TIP3   OH234981   3.203   7.392   6.356  0.1718  0.2368 -0.6507
 2957TIP3    H134982   3.235   7.374   6.444 -0.5613  1.0388 -0.2037
 2957TIP3    H234983   3.251   7.331   6.299  0.7448 -0.1902  0.2815
 2958TIP3   OH234984   1.294   2.874   6.449  0.0244 -0.1724  0.3896
 2958TIP3    H134985   1.205   2.857   6.481 -0.3532 -1.4799 -1.1810
 2958TIP3    H234986   1.330   2.788   6.431  1.7805  0.3314  1.3480
 2959TIP3   OH234987   7.744   1.998   0.542 -0.0733 -0.1067  0.0337
 2959TIP3    H134988   7.783   1.912   0.551  0.7652  0.3324  0.8161
 2959TIP3    H234989   7.774   2.046   0.619 -0.2290  0.9984 -0.5711
 2960TIP3   OH234990   1.246   6.475   0.579 -0.0401  0.3257  0.3593
 2960TIP3    H134991   1.272   6.424   0.502 -1.3190 -0.8979  0.6874
 2960TIP3    H234992   1.278   6.423   0.653 -0.3446  0.6020  0.6869
 2961TIP3   OH234993   4.684   7.689   7.409 -0.3005 -0.2384 -0.0777
 2961TIP3    H134994   4.733   7.771   7.402  0.7261 -0.9288 -1.4477
 2961TIP3    H234995   4.678   7.656   7.320  1.7129 -3.0029  0.6521
 2962TIP3   OH234996   5.459   4.535   6.661 -0.0494 -0.0886  0.3795
 2962TIP3    H134997   5.519   4.603   6.632 -0.5200  0.1374 -0.0806
 2962TIP3    H234998   5.394   4.582   6.715 -0.2725 -0.2001  0.2082
 2963TIP3   OH234999   5.679   1.903   6.809  0.0077  0.1695  0.0138
 2963TIP3    H135000   5.710   1.948   6.888 -0.8032 -0.7614  0.8839
 2963TIP3    H235001   5.583   1.902   6.818 -0.1556  0.8344 -1.4283
 2964TIP3   OH235002   1.747   5.816   0.993  0.3537  0.1928 -0.0798
 2964TIP3    H135003   1.730   5.910   1.002 -0.0322  0.1840 -0.7129
 2964TIP3    H235004   1.675   5.783   0.939  1.2707 -0.2061 -1.0978
 2965TIP3   OH235005   4.930   5.579   1.891 -0.2675 -0.7629  0.7882
 2965TIP3    H135006   5.006   5.623   1.853  0.2298 -2.4973 -0.3066
 2965TIP3    H235007   4.967   5.518   1.955 -0.8824 -0.2756  1.6262
 2966TIP3   OH235008   7.867   1.152   1.311 -0.1325 -0.0374  0.4342
 2966TIP3    H135009   7.816   1.086   1.359 -0.1255 -0.9327 -0.7500
 2966TIP3    H235010   7.958   1.122   1.318  0.1344  0.9145  1.5180
 2967TIP3   OH235011   1.874   2.878   1.180 -0.1796 -0.7076 -0.5148
 2967TIP3    H135012   1.958   2.832   1.176 -0.1282 -0.8289  1.3943
 2967TIP3    H235013   1.896   2.969   1.160  0.5684 -0.5882  0.7568
 2968TIP3   OH235014   6.646   6.601   7.338 -0.3228  0.0298 -0.2731
 2968TIP3    H135015   6.698   6.676   7.368 -0.1360 -0.3109  0.2600
 2968TIP3    H235016   6.665   6.531   7.401 -0.8711 -0.3213 -0.4885
 2969TIP3   OH235017   6.091   3.545   1.007  0.0835 -0.3793 -0.1702
 2969TIP3    H135018   6.087   3.530   1.102  1.1313 -2.3165 -0.3770
 2969TIP3    H235019   6.116   3.460   0.971  1.0767  0.6619 -2.0629
 2970TIP3   OH235020   5.079   0.857   6.016 -0.5387  0.0344  0.1629
 2970TIP3    H135021   5.113   0.936   6.056  0.4431 -0.1675 -0.2477
 2970TIP3    H235022   5.053   0.884   5.928  0.7188 -0.2970 -0.3243
 2971TIP3   OH235023   6.648   0.222   2.072  0.3398  0.2921 -0.0440
 2971TIP3    H135024   6.724   0.170   2.100  0.1803 -0.9750 -1.8104
 2971TIP3    H235025   6.573   0.165   2.089 -0.2628  1.5228  1.6432
 2972TIP3   OH235026   7.864   2.508   0.480 -0.0597  0.0602  0.4658
 2972TIP3    H135027   7.904   2.433   0.523 -1.1633 -0.0589  1.3210
 2972TIP3    H235028   7.770   2.488   0.477 -0.3476  1.2840  0.4908
 2973TIP3   OH235029   4.461   7.979   0.096  0.3447  0.0057  0.2418
 2973TIP3    H135030   4.443   8.056   0.042  0.9065  0.8392  1.2088
 2973TIP3    H235031   4.556   7.972   0.098  0.3268 -0.1264  0.9537
 2974TIP3   OH235032   5.075   1.315   0.167  0.4487 -0.0721 -0.1814
 2974TIP3    H135033   4.999   1.320   0.110 -0.0009  0.2648  0.4318
 2974TIP3    H235034   5.126   1.242   0.134  0.0192 -0.0982 -0.7944
 2975TIP3   OH235035   1.904   3.233   6.392  0.1515 -0.7959  0.3337
 2975TIP3    H135036   1.983   3.280   6.419  0.2145 -0.4021 -0.5169
 2975TIP3    H235037   1.930   3.141   6.389  0.3894 -0.7413  0.7193
 2976TIP3   OH235038   7.289   7.829   5.776 -0.2910  0.1375  0.4033
 2976TIP3    H135039   7.241   7.884   5.837 -2.5746 -0.6346 -0.6015
 2976TIP3    H235040   7.238   7.749   5.769  0.4133 -0.2069 -1.7390
 2977TIP3   OH235041   2.191   0.548   0.812 -0.4702  0.5921  0.4058
 2977TIP3    H135042   2.243   0.628   0.815 -0.8897  0.8844  0.0792
 2977TIP3    H235043   2.172   0.535   0.719 -0.3683  0.0849  0.4493
 2978TIP3   OH235044   7.469   0.873   7.501 -0.3262  0.2536  0.0286
 2978TIP3    H135045   7.380   0.898   7.477 -0.2351 -0.1805 -0.8187
 2978TIP3    H235046   7.493   0.933   7.571 -1.9997 -0.9212  1.6953
 2979TIP3   OH235047   7.184   1.264   1.004 -0.7617 -0.1031 -0.5968
 2979TIP3    H135048   7.117   1.304   0.949  1.5953  0.8058 -3.0675
 2979TIP3    H235049   7.226   1.338   1.048 -1.2663 -0.6513  0.8751
 2980TIP3   OH235050   0.109   2.710   7.855  0.1575  0.4742  0.1567
 2980TIP3    H135051   0.102   2.639   7.918  1.9702 -0.0822 -0.2181
 2980TIP3    H235052   0.172   2.771   7.894  0.3846  0.7080 -0.5527
 2981TIP3   OH235053   2.014   4.718   1.539 -0.3178  0.4703  0.4617
 2981TIP3    H135054   2.017   4.659   1.464 -1.1683  0.7020  0.2342
 2981TIP3    H235055   1.952   4.677   1.599 -2.4941  2.0777 -0.5562
 2982TIP3   OH235056   4.909   7.341   0.287 -0.4645 -0.1626 -0.0657
 2982TIP3    H135057   4.853   7.303   0.355  1.3561 -1.4539  0.7900
 2982TIP3    H235058   4.998   7.332   0.321  0.2883  2.3452 -1.1212
 2983TIP3   OH235059   1.077   4.306   7.817  0.0157 -0.3054 -0.1018
 2983TIP3    H135060   1.064   4.360   7.739  0.8058 -0.1235 -0.1252
 2983TIP3    H235061   1.169   4.279   7.812  0.3622  0.4890  1.2377
 2984TIP3   OH235062   0.983   3.862   7.274  0.1821 -0.4799 -0.2599
 2984TIP3    H135063   0.937   3.852   7.358  1.5228  1.0192  0.7162
 2984TIP3    H235064   0.993   3.772   7.242 -0.0751 -1.1284  1.3440
 2985TIP3   OH235065   2.323   6.725   0.740  0.3056  0.2551 -0.5420
 2985TIP3    H135066   2.341   6.677   0.659  1.0218  1.3235 -1.0431
 2985TIP3    H235067   2.265   6.668   0.790 -0.9545  0.0100 -2.2310
 2986TIP3   OH235068   1.876   3.015   5.563 -0.1089  0.1049  0.0678
 2986TIP3    H135069   1.888   2.921   5.573  0.6049  0.4432  3.5575
 2986TIP3    H235070   1.783   3.025   5.538 -0.8406 -1.4577  1.9585
 2987TIP3   OH235071   7.659   4.070   7.581 -0.4762 -0.8096  0.1664
 2987TIP3    H135072   7.640   4.033   7.494  2.8480 -1.0178 -0.6107
 2987TIP3    H235073   7.658   4.164   7.567 -2.3101 -0.7502  0.5267
 2988TIP3   OH235074   3.537   6.979   6.438  0.5315  0.0348  0.2718
 2988TIP3    H135075   3.622   6.962   6.480  0.9618  1.4532  0.0288
 2988TIP3    H235076   3.548   7.064   6.396 -1.0956  0.3526  0.4340
 2989TIP3   OH235077   2.574   4.656   0.944  0.5400  1.0865  0.5717
 2989TIP3    H135078   2.634   4.653   1.019  0.9946 -0.7102  0.1726
 2989TIP3    H235079   2.631   4.670   0.869  0.3011  0.7713  0.3331
 2990TIP3   OH235080   5.347   2.998   0.913  0.0014  0.8563  0.2087
 2990TIP3    H135081   5.258   2.974   0.889  0.3716  0.5577 -0.9003
 2990TIP3    H235082   5.344   3.007   1.009 -0.8521 -0.6697  0.3567
 2991TIP3   OH235083   6.053   7.846   0.203 -0.1197  0.4611  0.6084
 2991TIP3    H135084   5.960   7.867   0.217 -0.4408 -0.8633  0.6799
 2991TIP3    H235085   6.093   7.856   0.289 -0.0442  1.7052  0.4372
 2992TIP3   OH235086   1.618   6.550   6.245  0.0125 -0.6281  0.7133
 2992TIP3    H135087   1.606   6.585   6.333  2.7564  1.8316  0.2750
 2992TIP3    H235088   1.543   6.581   6.196 -0.0732  0.5178  1.5286
 2993TIP3   OH235089   0.082   0.922   6.820 -0.2903  0.0131 -0.8858
 2993TIP3    H135090   0.020   0.883   6.881 -1.4094  1.3888 -1.0900
 2993TIP3    H235091   0.123   0.847   6.776 -0.6481 -0.9522  0.3574
 2994TIP3   OH235092   7.366   5.759   7.715  0.0127 -0.0127 -0.3095
 2994TIP3    H135093   7.402   5.773   7.802 -1.7977 -0.7446  0.6225
 2994TIP3    H235094   7.361   5.664   7.706 -0.9624  0.0617 -0.6812
 2995TIP3   OH235095   2.507   2.389   0.419 -0.2036  0.0946 -0.3595
 2995TIP3    H135096   2.516   2.437   0.502  0.0067 -0.1432 -0.2419
 2995TIP3    H235097   2.585   2.332   0.416 -0.2348  0.0704 -0.6981
 2996TIP3   OH235098   4.755   7.817   0.345  0.2554  0.3925  0.2801
 2996TIP3    H135099   4.734   7.795   0.255  0.3672 -0.8995  0.5540
 2996TIP3    H235100   4.775   7.733   0.387 -0.9747  0.8110  1.8263
 2997TIP3   OH235101   6.517   6.473   2.210 -0.4105  0.2450  0.1907
 2997TIP3    H135102   6.562   6.505   2.288  1.6116 -0.3830 -0.6451
 2997TIP3    H235103   6.505   6.551   2.156  0.6495  0.2807 -0.0169
 2998TIP3   OH235104   1.504   0.710   7.607 -0.0970 -0.2780 -0.7227
 2998TIP3    H135105   1.442   0.734   7.538 -0.8179 -0.9941 -0.3457
 2998TIP3    H235106   1.589   0.735   7.573 -0.2402 -2.1284 -2.6187
 2999TIP3   OH235107   3.004   0.492   6.775  0.3448 -0.1306  0.4940
 2999TIP3    H135108   2.999   0.483   6.679  0.3606  1.4100  0.3187
 2999TIP3    H235109   2.938   0.432   6.808 -0.8244  0.5026 -0.5764
 3000TIP3   OH235110   6.825   6.274   6.828  0.3751  0.2507  0.0863
 3000TIP3    H135111   6.833   6.221   6.749  1.5290  1.1940 -0.4561
 3000TIP3    H235112   6.875   6.226   6.894  1.0659  0.4500 -0.2876
 3001TIP3   OH235113   7.020   3.364   7.752  0.0470  0.1336  0.7439
 3001TIP3    H135114   7.011   3.273   7.723  0.2103  0.7196 -1.3557
 3001TIP3    H235115   6.976   3.367   7.836 -2.0810 -1.3897 -0.2253
 3002TIP3   OH235116   6.696   0.530   7.692  0.0885  0.4017  0.7353
 3002TIP3    H135117   6.726   0.547   7.781  0.7170 -3.2074  1.3732
 3002TIP3    H235118   6.626   0.465   7.702  1.4632 -1.5636 -1.4273
 3003TIP3   OH235119   3.066   2.948   7.746 -0.2195  0.0125  0.2007
 3003TIP3    H135120   3.057   3.020   7.808 -1.1022 -0.3588  0.5143
 3003TIP3    H235121   3.028   2.872   7.791  0.2616 -0.5472 -0.3105
 3004TIP3   OH235122   1.889   0.347   7.528 -0.0899  0.0106 -0.3838
 3004TIP3    H135123   1.879   0.423   7.584  0.3908  0.5141 -0.9677
 3004TIP3    H235124   1.802   0.306   7.527 -0.2693  0.3683  0.1760
 3005TIP3   OH235125   1.792   0.746   6.634 -0.3664 -0.1677  0.4283
 3005TIP3    H135126   1.834   0.825   6.599  1.2152 -0.7351  0.9833
 3005TIP3    H235127   1.707   0.744   6.590  0.1317  1.0644 -0.6813
 3006TIP3   OH235128   2.252   3.635   7.156  0.0601 -0.2767 -0.4925
 3006TIP3    H135129   2.290   3.719   7.180 -0.2609 -0.5353  0.9780
 3006TIP3    H235130   2.286   3.618   7.068  0.3754  1.2290 -0.6978
 3007TIP3   OH235131   4.257   6.262   0.669  0.2112  0.5508 -0.2988
 3007TIP3    H135132   4.301   6.346   0.684  1.1767  0.1914 -1.0750
 3007TIP3    H235133   4.270   6.244   0.576  0.0226 -0.4679 -0.1355
 3008TIP3   OH235134   6.730   2.726   7.935  0.6152 -0.1112 -0.0723
 3008TIP3    H135135   6.653   2.750   7.883 -0.1065 -1.8999  0.0900
 3008TIP3    H235136   6.706   2.748   8.025  0.8505  0.6107 -0.1823
 3009TIP3   OH235137   2.581   7.194   0.013  0.5458 -0.2384  0.1056
 3009TIP3    H135138   2.539   7.114  -0.018  0.4507 -0.0417 -0.2839
 3009TIP3    H235139   2.605   7.241  -0.067  1.6565 -0.4158  0.3251
 3010TIP3   OH235140   8.022   5.628   6.555  0.1633 -0.3838  0.0197
 3010TIP3    H135141   8.092   5.693   6.556  0.9001 -1.1416  1.4119
 3010TIP3    H235142   7.954   5.665   6.612  0.5457 -0.7800  0.7420
 3011TIP3   OH235143   5.405   0.750   0.977  0.1175 -0.3775  0.1409
 3011TIP3    H135144   5.330   0.751   0.918 -0.4733  0.3681  0.8707
 3011TIP3    H235145   5.443   0.663   0.967  0.6329  0.0240 -2.0546
 3012TIP3   OH235146   6.298   2.529   7.554  0.6982  0.2972  0.6169
 3012TIP3    H135147   6.220   2.480   7.528  0.8885  0.1233  0.3657
 3012TIP3    H235148   6.367   2.463   7.560  0.8170  0.4435  0.8815
 3013TIP3   OH235149   4.607   0.608   5.434  0.4388 -0.1042  0.4280
 3013TIP3    H135150   4.678   0.601   5.371 -0.1324  0.4468 -0.2954
 3013TIP3    H235151   4.633   0.680   5.492  0.9752 -0.6274  0.8464
 3014TIP3   OH235152   7.502   0.213   7.626 -0.2017 -0.4664 -0.3561
 3014TIP3    H135153   7.525   0.132   7.671 -0.2969 -0.1738  0.2286
 3014TIP3    H235154   7.550   0.281   7.674  0.4305 -0.2459 -1.2589
 3015TIP3   OH235155   6.464   3.079   1.939 -0.4919 -0.5186 -0.3440
 3015TIP3    H135156   6.449   3.131   2.019 -1.7984 -0.2483 -0.7444
 3015TIP3    H235157   6.408   3.002   1.950 -0.3334 -0.6986 -0.7948
 3016TIP3   OH235158   0.859   1.272   7.477 -0.7712  0.4625  0.1499
 3016TIP3    H135159   0.787   1.325   7.443  0.1405  1.8632  0.3247
 3016TIP3    H235160   0.923   1.336   7.508  0.4927 -0.7460  0.1218
 3017TIP3   OH235161   5.467   5.583   0.171  0.2697  0.3093  0.2795
 3017TIP3    H135162   5.562   5.585   0.161  0.2957 -0.3138  0.3245
 3017TIP3    H235163   5.443   5.493   0.150 -0.4430  0.7393 -0.8048
 3018TIP3   OH235164   2.710   5.603   6.108  0.5285 -0.4631 -0.0621
 3018TIP3    H135165   2.748   5.686   6.079  0.2154 -0.1756  0.3449
 3018TIP3    H235166   2.657   5.626   6.184  1.3244 -1.1961  0.7485
 3019TIP3   OH235167   0.895   7.342   1.143  0.1919  0.2324 -0.1521
 3019TIP3    H135168   0.854   7.357   1.058  1.5858  2.1481 -0.5539
 3019TIP3    H235169   0.823   7.350   1.206 -0.3883  1.5859 -0.9531
 3020TIP3   OH235170   6.067   7.049   6.278  0.5222  0.1259 -0.3208
 3020TIP3    H135171   6.092   7.098   6.200  0.3018 -0.8438 -1.0038
 3020TIP3    H235172   5.998   6.990   6.249  0.6161 -0.4267  0.5482
 3021TIP3   OH235173   1.098   7.688   7.464 -0.9712 -0.7841  0.2598
 3021TIP3    H135174   1.165   7.654   7.522 -0.3701  0.5488  0.3823
 3021TIP3    H235175   1.111   7.783   7.464 -3.7385 -0.3037  1.4123
 3022TIP3   OH235176   1.587   4.383   1.189 -0.1441  0.2951 -0.5370
 3022TIP3    H135177   1.636   4.375   1.271 -0.6663 -0.7593 -0.3002
 3022TIP3    H235178   1.496   4.397   1.217 -0.4762 -0.9755 -0.8874
 3023TIP3   OH235179   4.370   7.194   1.950 -0.1199 -0.1878  0.3411
 3023TIP3    H135180   4.348   7.124   1.889  0.8904  1.1164 -1.6173
 3023TIP3    H235181   4.317   7.268   1.923  1.7545  1.0083 -0.3031
 3024TIP3   OH235182   2.054   0.653   5.399 -0.0084  0.2525 -0.6197
 3024TIP3    H135183   2.026   0.562   5.405 -0.2851  0.2531 -1.6877
 3024TIP3    H235184   2.147   0.651   5.424 -0.0838 -0.2677 -0.3642
 3025TIP3   OH235185   1.672   2.717   0.444  0.0632 -0.0418  0.0461
 3025TIP3    H135186   1.762   2.727   0.474  0.4654 -0.4070 -0.9839
 3025TIP3    H235187   1.671   2.756   0.356 -0.5185 -0.9571 -0.3753
 3026TIP3   OH235188   6.807   3.241   1.257  0.6703  0.3243  0.1365
 3026TIP3    H135189   6.796   3.204   1.345 -1.9501  0.3901 -0.0988
 3026TIP3    H235190   6.853   3.172   1.208  1.5871  0.0257  1.3516
 3027TIP3   OH235191   0.231   7.864   7.742  0.0804 -0.0196 -0.0444
 3027TIP3    H135192   0.162   7.832   7.801 -0.1182 -1.0505 -0.8026
 3027TIP3    H235193   0.192   7.862   7.655  0.0898  2.3110 -0.1621
 3028TIP3   OH235194   0.407   7.357   2.036 -0.5211 -0.2485  0.2376
 3028TIP3    H135195   0.322   7.336   2.075 -0.4714 -0.0680  0.4385
 3028TIP3    H235196   0.386   7.415   1.962 -0.5705 -0.1886  0.2989
 3029TIP3   OH235197   3.284   2.122   5.733  0.1946  0.0062 -0.1302
 3029TIP3    H135198   3.224   2.075   5.675 -0.8939 -0.9660  1.6863
 3029TIP3    H235199   3.372   2.096   5.703 -0.3570 -2.5779  0.2456
 3030TIP3   OH235200   3.068   1.431   1.235 -0.2107  0.3972 -0.1030
 3030TIP3    H135201   3.160   1.419   1.210 -0.0023  1.0842  0.3011
 3030TIP3    H235202   3.018   1.403   1.159  0.3615  0.7727 -0.6211
 3031TIP3   OH235203   5.496   6.541   7.747 -0.1991 -0.7560  0.1542
 3031TIP3    H135204   5.460   6.574   7.664  0.2385 -0.0680  0.2332
 3031TIP3    H235205   5.535   6.456   7.724  2.6703  0.7457 -1.0640
 3032TIP3   OH235206   6.964   3.191   2.506  0.6482 -0.1764  0.3996
 3032TIP3    H135207   7.007   3.109   2.529 -1.5187 -1.0243  1.7589
 3032TIP3    H235208   7.024   3.234   2.444  1.3603 -3.2710 -1.2467
 3033TIP3   OH235209   5.668   7.039   7.056 -0.1766  0.6187  0.6001
 3033TIP3    H135210   5.748   7.001   7.093  0.5500  1.8409  0.3579
 3033TIP3    H235211   5.676   7.132   7.076 -1.5576  0.7518  0.5637
 3034TIP3   OH235212   0.049   7.090   1.288 -0.4097  0.1156  0.0476
 3034TIP3    H135213   0.130   7.071   1.241 -0.0519  0.6851  0.4005
 3034TIP3    H235214   0.060   7.047   1.373  0.3842  1.7696  0.8289
 3035TIP3   OH235215   6.491   7.583   6.204  0.3695 -0.2623 -0.3207
 3035TIP3    H135216   6.534   7.649   6.149 -2.8491  1.3160 -1.2031
 3035TIP3    H235217   6.495   7.503   6.152  2.3536 -0.2929 -0.2259
 3036TIP3   OH235218   6.147   5.495   0.007  0.2044 -0.3896  0.7262
 3036TIP3    H135219   6.124   5.527  -0.080 -1.6449  0.1478  1.3591
 3036TIP3    H235220   6.229   5.539   0.029  0.4059 -0.1234 -0.5115
 3037TIP3   OH235221   3.206   6.752   1.211 -0.0462 -0.4088  0.2195
 3037TIP3    H135222   3.269   6.824   1.213 -0.2041 -0.2641  0.0323
 3037TIP3    H235223   3.238   6.695   1.141  1.3294 -1.6739  1.7815
 3038TIP3   OH235224   0.602   4.438   1.990  0.6084 -0.1413 -0.0688
 3038TIP3    H135225   0.574   4.436   1.899 -0.3235 -1.0469  0.2153
 3038TIP3    H235226   0.529   4.477   2.037  0.9120 -0.0667  0.3444
 3039TIP3   OH235227   5.413   7.299   2.457 -0.2042 -0.5786  0.2238
 3039TIP3    H135228   5.431   7.309   2.363 -1.7318 -0.2157 -0.0712
 3039TIP3    H235229   5.440   7.382   2.496 -0.7510 -0.2400 -0.1099
 3040TIP3   OH235230   7.728   0.298   1.112  0.4542  0.4205  0.3384
 3040TIP3    H135231   7.821   0.277   1.106  0.2786 -0.0215 -0.9717
 3040TIP3    H235232   7.711   0.356   1.038 -0.1816  1.0626  0.9644
 3041TIP3   OH235233   6.543   0.582   6.325 -0.3347  0.1398 -0.1037
 3041TIP3    H135234   6.568   0.636   6.400  2.0196 -0.7970 -0.1180
 3041TIP3    H235235   6.525   0.496   6.362 -1.1922  0.1856 -0.3990
 3042TIP3   OH235236   7.462   2.493   0.753 -0.1706 -0.2546  0.4448
 3042TIP3    H135237   7.396   2.463   0.816  0.0761 -1.1963  0.2723
 3042TIP3    H235238   7.457   2.589   0.757 -0.6876 -0.3059  1.3365
 3043TIP3   OH235239   6.439   6.787   5.621  0.0982 -0.2625  0.3558
 3043TIP3    H135240   6.363   6.743   5.658 -0.3777  1.0559  0.9908
 3043TIP3    H235241   6.502   6.791   5.694 -1.4325  3.7621  1.7146
 3044TIP3   OH235242   7.069   5.799   7.525  0.3075 -0.2881 -0.0074
 3044TIP3    H135243   7.140   5.780   7.465 -0.1686  0.9189 -1.0075
 3044TIP3    H235244   6.989   5.787   7.473 -0.1696 -0.3657  0.7201
 3045TIP3   OH235245   0.620   2.439   7.276 -0.1063  0.1972 -0.2248
 3045TIP3    H135246   0.697   2.482   7.314 -0.0839  0.8679 -0.9990
 3045TIP3    H235247   0.617   2.472   7.186 -0.4734 -0.9262 -0.6409
 3046TIP3   OH235248   5.952   8.039   1.639 -0.5391  0.1413  0.3045
 3046TIP3    H135249   5.956   7.959   1.587  2.4943 -1.8229  3.1803
 3046TIP3    H235250   5.892   8.019   1.710  0.3956  0.2482  1.1577
 3047TIP3   OH235251   2.222   6.476   0.243 -0.6604  0.0963 -0.0861
 3047TIP3    H135252   2.128   6.470   0.225 -0.8589  0.8710  0.6607
 3047TIP3    H235253   2.261   6.501   0.160 -1.4172  2.3317  0.1640
 3048TIP3   OH235254   0.352   5.077   7.924 -0.4121 -0.1153  0.1301
 3048TIP3    H135255   0.435   5.087   7.878  0.1032 -1.3029  0.7841
 3048TIP3    H235256   0.296   5.030   7.862 -0.6973  0.8557 -0.3870
 3049TIP3   OH235257   1.739   5.791   7.266 -0.0018  0.1153  0.4768
 3049TIP3    H135258   1.718   5.844   7.343  0.0343  0.8278  0.0143
 3049TIP3    H235259   1.755   5.856   7.197 -0.7177 -0.5120 -0.3033
 3050TIP3   OH235260   5.377   7.909   2.154  0.1886 -0.3902  0.1691
 3050TIP3    H135261   5.415   7.995   2.138  1.3804 -1.0502 -0.6373
 3050TIP3    H235262   5.448   7.857   2.191  0.3352 -1.8583 -2.0174
 3051TIP3   OH235263   2.469   5.377   5.472  0.2066 -0.2986 -0.1326
 3051TIP3    H135264   2.541   5.431   5.441  0.2097 -0.3101 -0.1454
 3051TIP3    H235265   2.489   5.289   5.441  0.2280 -0.3168 -0.0665
 3052TIP3   OH235266   5.322   4.434   6.404  0.5545 -0.1363  0.6504
 3052TIP3    H135267   5.322   4.471   6.315  0.0874 -1.3060  0.1307
 3052TIP3    H235268   5.394   4.479   6.449  1.2512 -0.0088 -0.5331
 3053TIP3   OH235269   1.572   7.029   1.761 -0.2041  0.4954  0.7881
 3053TIP3    H135270   1.613   7.091   1.821 -1.3846 -0.4852  2.7068
 3053TIP3    H235271   1.485   7.015   1.797 -1.0348 -0.0026 -1.2982
 3054TIP3   OH235272   7.408   7.040   1.359 -0.0538 -0.5202 -0.0867
 3054TIP3    H135273   7.398   6.948   1.334 -0.1796 -0.4236 -0.3870
 3054TIP3    H235274   7.449   7.036   1.446  0.5022 -0.8523 -0.3558
 3055TIP3   OH235275   7.070   6.516   0.943 -0.4517 -0.7342  0.0925
 3055TIP3    H135276   7.117   6.580   0.996 -2.3774 -0.3565  1.4311
 3055TIP3    H235277   7.087   6.432   0.986 -0.3874 -0.7073  0.1195
 3056TIP3   OH235278   5.823   1.651   1.077  0.0844 -0.3646 -0.3462
 3056TIP3    H135279   5.914   1.682   1.076 -0.6584  2.3183  1.9308
 3056TIP3    H235280   5.771   1.729   1.057 -1.8107 -0.7362  2.5043
 3057TIP3   OH235281   6.116   5.940   7.442  0.3660 -0.4734 -0.3132
 3057TIP3    H135282   6.209   5.952   7.420  0.2752 -0.3066 -0.5968
 3057TIP3    H235283   6.104   5.845   7.441  0.2668 -0.4558 -1.3714
 3058TIP3   OH235284   0.585   7.750   0.263  0.5902  0.2349 -0.0340
 3058TIP3    H135285   0.499   7.792   0.259  0.9901  1.2776  1.5597
 3058TIP3    H235286   0.620   7.761   0.174 -0.4962  0.6984 -0.4305
 3059TIP3   OH235287   2.959   3.984   7.593 -0.6393  0.1993 -0.5279
 3059TIP3    H135288   3.013   3.933   7.532 -1.2825 -0.5863 -0.4573
 3059TIP3    H235289   2.870   3.955   7.575 -0.8790  0.2594  0.5040
 3060TIP3   OH235290   7.248   0.937   6.949  0.5430 -0.6104 -0.0366
 3060TIP3    H135291   7.248   1.023   6.989  0.2397  0.1878 -1.6630
 3060TIP3    H235292   7.333   0.931   6.904  0.1785 -0.7530 -0.7227
 3061TIP3   OH235293   2.532   8.061   1.522  0.0779 -0.1154  0.1167
 3061TIP3    H135294   2.528   8.142   1.573 -2.1679 -1.7448  2.8031
 3061TIP3    H235295   2.450   8.016   1.542  1.9086 -3.8467  0.1065
 3062TIP3   OH235296   0.269   6.398   1.865 -0.5662  0.4597 -0.1428
 3062TIP3    H135297   0.181   6.423   1.891 -0.7585 -0.2305 -0.1155
 3062TIP3    H235298   0.322   6.476   1.884 -0.5595 -0.1619  2.9521
 3063TIP3   OH235299   5.474   2.031   7.178  0.3001 -0.1779  0.0442
 3063TIP3    H135300   5.463   2.103   7.241  1.2121 -0.4944  0.5835
 3063TIP3    H235301   5.397   1.976   7.191  0.8463 -0.6457  1.4423
 3064TIP3   OH235302   2.778   5.404   2.278  0.2983 -0.6453  0.2552
 3064TIP3    H135303   2.873   5.401   2.288  0.1986  1.1663  2.5734
 3064TIP3    H235304   2.762   5.469   2.209  0.7481  0.9586  1.6059
 3065TIP3   OH235305   7.820   0.865   0.961  0.1259 -0.3699 -0.5652
 3065TIP3    H135306   7.729   0.836   0.963  0.9130 -3.1696 -0.9710
 3065TIP3    H235307   7.815   0.956   0.933 -2.4223 -1.1705 -3.2208
 3066TIP3   OH235308   4.619   2.312   0.566 -0.1296  0.0104  0.8421
 3066TIP3    H135309   4.554   2.267   0.513  2.2079 -1.2448 -1.1425
 3066TIP3    H235310   4.604   2.280   0.655 -1.3449 -1.2737  0.2080
 3067TIP3   OH235311   2.060   1.538   1.555  0.1462 -0.9250 -0.3697
 3067TIP3    H135312   2.048   1.444   1.541  0.8469 -0.8013 -2.0845
 3067TIP3    H235313   2.117   1.544   1.631  0.3732 -1.9069 -0.4512
 3068TIP3   OH235314   6.229   0.290   6.582  0.7181 -0.1892  0.0142
 3068TIP3    H135315   6.204   0.249   6.499  1.5348 -1.4565  0.3781
 3068TIP3    H235316   6.264   0.219   6.635  3.5572  1.1681  0.1538
 3069TIP3   OH235317   4.516   4.596   1.388  0.1949 -0.3675  0.0032
 3069TIP3    H135318   4.598   4.628   1.352  1.1826 -1.7727  0.8834
 3069TIP3    H235319   4.484   4.533   1.323 -0.1545  0.1279 -0.3070
 3070TIP3   OH235320   0.669   6.297   5.735 -0.2959 -0.2719 -0.1027
 3070TIP3    H135321   0.701   6.208   5.722  2.0524  0.1702  1.8808
 3070TIP3    H235322   0.595   6.288   5.795 -1.4627 -0.9918 -1.5731
 3071TIP3   OH235323   3.811   4.860   6.025  0.0864 -0.7210  0.0204
 3071TIP3    H135324   3.732   4.881   6.074  1.3479  1.3750  1.3386
 3071TIP3    H235325   3.797   4.901   5.940  0.2051  0.7445  0.6716
 3072TIP3   OH235326   0.345   8.097   7.123 -0.0671 -0.1871  0.5575
 3072TIP3    H135327   0.351   8.020   7.181  0.1720 -0.1095  0.6372
 3072TIP3    H235328   0.409   8.080   7.054  0.1926  0.0682  0.7295
 3073TIP3   OH235329   3.032   1.892   6.512  0.3196 -0.4372 -0.3721
 3073TIP3    H135330   3.059   1.825   6.575 -1.1005 -0.3461  0.3657
 3073TIP3    H235331   3.109   1.948   6.503  0.8675 -1.0121  0.5468
 3074TIP3   OH235332   1.527   4.279   7.645  0.3108 -0.2190  0.0158
 3074TIP3    H135333   1.616   4.245   7.639  0.0620 -0.7380 -0.8291
 3074TIP3    H235334   1.471   4.202   7.640 -0.2462  0.2488 -1.4502
 3075TIP3   OH235335   3.972   4.801   5.622  0.2235 -0.4944 -0.6746
 3075TIP3    H135336   3.953   4.719   5.576 -0.3880 -1.2008  0.7692
 3075TIP3    H235337   4.051   4.781   5.673  0.7515  0.1941 -1.2174
 3076TIP3   OH235338   5.914   4.559   6.317  0.1469  0.0022  0.1116
 3076TIP3    H135339   5.830   4.600   6.340  1.3629  1.6462  1.9347
 3076TIP3    H235340   5.896   4.513   6.235 -2.1859  1.5165 -0.3368
 3077TIP3   OH235341   6.129   2.323   7.736 -0.0056  0.0529  0.0416
 3077TIP3    H135342   6.069   2.284   7.799  0.4567  0.9566  1.0914
 3077TIP3    H235343   6.159   2.250   7.682 -0.4014 -0.7612  0.8955
 3078TIP3   OH235344   7.197   0.830   1.283  0.0022  0.6213  0.5122
 3078TIP3    H135345   7.238   0.878   1.212  0.1163 -2.0750 -1.3684
 3078TIP3    H235346   7.136   0.893   1.322  3.1463  3.5784  1.0600
 3079TIP3   OH235347   5.945   3.190   2.762  0.3845 -0.1426  0.0807
 3079TIP3    H135348   6.033   3.227   2.761  0.0264  0.8714  1.9335
 3079TIP3    H235349   5.955   3.104   2.721  2.2867 -0.1787  0.5196
 3080TIP3   OH235350   3.166   6.998   0.961 -0.1814 -0.4498 -0.0512
 3080TIP3    H135351   3.092   6.960   1.010 -1.4136  1.5224 -0.2519
 3080TIP3    H235352   3.185   7.080   1.007  1.9985 -0.9594  0.0472
 3081TIP3   OH235353   7.029   7.142   0.055 -0.4407 -0.0781  0.2292
 3081TIP3    H135354   7.073   7.142   0.139 -1.1137  1.3638  0.6181
 3081TIP3    H235355   6.962   7.074   0.063  0.4060 -0.9211  0.3281
 3082TIP3   OH235356   4.630   0.383   6.362  0.2446  0.0784  0.0606
 3082TIP3    H135357   4.544   0.378   6.404  0.0974  0.8346 -0.1347
 3082TIP3    H235358   4.692   0.390   6.435 -0.0763  2.3044  0.1825
 3083TIP3   OH235359   4.739   7.106   0.990 -0.3393 -0.3218 -0.5298
 3083TIP3    H135360   4.834   7.097   0.992 -0.2431  0.6223  1.9730
 3083TIP3    H235361   4.707   7.022   0.957  1.3136 -0.9019 -0.7005
 3084TIP3   OH235362   7.248   4.747   6.897 -0.4173 -0.0385  0.0696
 3084TIP3    H135363   7.224   4.736   6.989 -0.9240  1.7192  0.1876
 3084TIP3    H235364   7.317   4.683   6.882  1.4071  1.2426  2.3527
 3085TIP3   OH235365   7.824   2.667   0.891 -0.2852  0.3348  0.2721
 3085TIP3    H135366   7.835   2.761   0.873 -1.9939  0.5140 -0.0116
 3085TIP3    H235367   7.808   2.663   0.985  0.3148  0.2755  0.3705
 3086TIP3   OH235368   3.387   4.298   6.854  0.3860  0.7965 -0.1819
 3086TIP3    H135369   3.367   4.215   6.810  0.9417 -0.3638  1.6588
 3086TIP3    H235370   3.415   4.356   6.783 -0.1811 -0.5051 -1.5428
 3087TIP3   OH235371   2.641   3.445   6.021 -0.4268 -0.3001  0.1991
 3087TIP3    H135372   2.548   3.467   6.008 -0.0061  0.8326 -1.0926
 3087TIP3    H235373   2.659   3.377   5.957 -0.0759  0.3474 -0.4020
 3088TIP3   OH235374   6.640   5.718   7.401 -0.0666 -0.0321  0.1216
 3088TIP3    H135375   6.617   5.729   7.494  0.3497  0.0095  0.2224
 3088TIP3    H235376   6.706   5.648   7.401  2.2738  2.0623  0.2058
 3089TIP3   OH235377   4.300   2.569   6.796 -0.3696  0.3177  0.4428
 3089TIP3    H135378   4.357   2.626   6.847 -0.6365 -0.3176  1.4772
 3089TIP3    H235379   4.220   2.620   6.784  0.6882  1.6290 -1.8930
 3090TIP3   OH235380   7.711   3.277   7.202  0.1691 -0.0457 -0.1757
 3090TIP3    H135381   7.736   3.369   7.197  0.8620 -0.2323 -0.2183
 3090TIP3    H235382   7.733   3.241   7.116 -2.8726  0.3923 -1.2921
 3091TIP3   OH235383   1.676   7.677   2.008 -0.3907  0.0209  0.4708
 3091TIP3    H135384   1.642   7.705   1.924  1.8569  0.0613 -0.5129
 3091TIP3    H235385   1.604   7.628   2.049 -1.6688  0.3759 -1.2637
 3092TIP3   OH235386   7.495   1.607   0.784 -0.1656  0.2840 -0.0803
 3092TIP3    H135387   7.589   1.604   0.806 -0.2635  1.1755  0.4953
 3092TIP3    H235388   7.485   1.540   0.717  0.9209  0.2776 -0.2655
 3093TIP3   OH235389   4.167   5.571   6.338  0.2636 -0.2451 -0.0181
 3093TIP3    H135390   4.095   5.600   6.282 -0.3312  1.0917  1.3483
 3093TIP3    H235391   4.125   5.518   6.406  0.9625 -1.7995 -0.7613
 3094TIP3   OH235392   1.223   2.173   1.284 -0.0118 -0.7462 -0.3799
 3094TIP3    H135393   1.218   2.198   1.377  0.7133 -0.6612 -0.3598
 3094TIP3    H235394   1.314   2.188   1.260 -0.5386  0.8886 -1.5845
 3095TIP3   OH235395   1.313   0.265   7.151  0.0042 -0.3350 -0.4106
 3095TIP3    H135396   1.368   0.191   7.129  1.6858  0.1245  1.8917
 3095TIP3    H235397   1.331   0.283   7.243 -1.0953  2.2986 -0.5939
 3096TIP3   OH235398   7.819   6.963   6.632 -0.0828  0.1064 -0.3686
 3096TIP3    H135399   7.727   6.949   6.608  0.5829 -2.5000 -1.8883
 3096TIP3    H235400   7.819   7.042   6.686 -3.2935 -0.2158  0.2841
 3097TIP3   OH235401   0.846   4.004   0.363  0.0511 -0.3399  0.7922
 3097TIP3    H135402   0.905   3.977   0.293 -0.6280 -0.9511  0.4435
 3097TIP3    H235403   0.888   4.082   0.401  0.3587  0.0834 -0.3777
 3098TIP3   OH235404   5.390   7.431   1.779  0.2836  0.1146  0.3879
 3098TIP3    H135405   5.335   7.504   1.808 -1.5525 -1.1614  0.2444
 3098TIP3    H235406   5.394   7.440   1.684  0.1654  0.1001  0.3813
 3099TIP3   OH235407   3.029   2.564   0.284 -0.3580 -0.1087  0.7878
 3099TIP3    H135408   2.992   2.482   0.319 -1.0552  0.5858  1.7216
 3099TIP3    H235409   3.020   2.626   0.356 -3.3005  1.8593 -1.0787
 3100TIP3   OH235410   6.014   6.730   7.865  0.0776  0.4899  0.7372
 3100TIP3    H135411   5.972   6.800   7.915 -0.4429  0.0055  0.9834
 3100TIP3    H235412   6.095   6.711   7.912 -0.5803 -0.2083  1.5995
 3101TIP3   OH235413   0.641   3.204   2.493 -0.3442 -0.3129  0.4546
 3101TIP3    H135414   0.624   3.292   2.528 -0.3534  1.1647 -2.8964
 3101TIP3    H235415   0.736   3.194   2.500 -0.3929 -0.2443  1.2751
 3102TIP3   OH235416   2.838   7.847   7.398 -0.2470  0.3453 -0.4093
 3102TIP3    H135417   2.761   7.873   7.349  0.0386  0.4024 -0.8351
 3102TIP3    H235418   2.804   7.793   7.470 -0.5384 -1.4443 -1.8043
 3103TIP3   OH235419   7.344   5.986   6.508 -0.2789  0.3534  0.2774
 3103TIP3    H135420   7.356   5.928   6.432  0.7570 -0.4620  1.0405
 3103TIP3    H235421   7.425   6.037   6.512 -0.3756  0.4733  0.7681
 3104TIP3   OH235422   6.378   0.019   6.614  0.3995  0.5699 -0.4606
 3104TIP3    H135423   6.318   0.009   6.540  1.3209  0.6480 -1.2389
 3104TIP3    H235424   6.396  -0.071   6.643  1.8716  0.3957 -1.8529
 3105TIP3   OH235425   2.733   2.741   7.708  0.5459  0.0271  0.5314
 3105TIP3    H135426   2.785   2.660   7.712  1.2358  0.4556  0.5213
 3105TIP3    H235427   2.742   2.770   7.618 -0.8821 -0.6235  0.1531
 3106TIP3   OH235428   3.153   0.836   1.404  0.0605 -0.7668  0.8176
 3106TIP3    H135429   3.130   0.807   1.492 -0.0963 -0.2795  0.9386
 3106TIP3    H235430   3.248   0.826   1.399  0.0043 -1.3726  0.8279
 3107TIP3   OH235431   6.379   6.103   0.335 -0.0350 -0.1078 -0.0082
 3107TIP3    H135432   6.456   6.122   0.282 -2.4490  0.0444 -3.8386
 3107TIP3    H235433   6.331   6.186   0.339 -0.8366 -0.5845  0.8287
 3108TIP3   OH235434   0.119   0.738   1.001 -0.1201  0.3194  0.0569
 3108TIP3    H135435   0.182   0.760   0.932  1.0657  0.9022  1.2699
 3108TIP3    H235436   0.096   0.647   0.984 -0.4487  0.6626 -1.5330
 3109TIP3   OH235437   4.797   7.456   1.817 -0.1833  0.0945  0.3103
 3109TIP3    H135438   4.734   7.444   1.888 -0.1635  2.6748  0.8864
 3109TIP3    H235439   4.880   7.424   1.853 -0.4410  0.1623  0.9768
 3110TIP3   OH235440   0.508   5.342   5.406 -0.0592  0.0808  0.6138
 3110TIP3    H135441   0.468   5.413   5.457 -2.3973  0.1815 -1.1975
 3110TIP3    H235442   0.585   5.381   5.367  1.3495  0.2213  3.3279
 3111TIP3   OH235443   7.775   6.195   0.431 -0.5650 -0.3106 -0.0016
 3111TIP3    H135444   7.783   6.276   0.381 -0.1739  0.3158  1.0292
 3111TIP3    H235445   7.735   6.223   0.514  0.6170 -0.9708  0.8143
 3112TIP3   OH235446   4.405   4.201   0.676  0.0614 -0.0188 -0.2051
 3112TIP3    H135447   4.396   4.124   0.621 -0.2596 -0.9084  1.0408
 3112TIP3    H235448   4.412   4.166   0.765  1.2054  1.3314  0.2750
 3113TIP3   OH235449   1.601   5.377   0.509 -0.6187  0.0308 -0.8138
 3113TIP3    H135450   1.551   5.328   0.443 -0.0598 -1.2042 -0.3461
 3113TIP3    H235451   1.691   5.348   0.498 -0.5575 -0.4544  0.6985
 3114TIP3   OH235452   2.597   2.530   7.540 -0.7112  0.3475 -0.5562
 3114TIP3    H135453   2.639   2.615   7.527 -0.6827  0.3598 -0.3868
 3114TIP3    H235454   2.666   2.467   7.519 -0.9295  0.3629 -1.3228
 3115TIP3   OH235455   3.072   3.878   0.564  0.3084  0.0443 -0.3754
 3115TIP3    H135456   3.119   3.901   0.644  2.0110  1.7256 -1.7707
 3115TIP3    H235457   3.131   3.818   0.518 -0.0206  0.1962 -1.0064
 3116TIP3   OH235458   0.985   7.642   5.932  0.1677  0.2584 -0.5990
 3116TIP3    H135459   1.052   7.702   5.900  0.5679  0.6017  0.7962
 3116TIP3    H235460   0.998   7.562   5.882  1.5729  0.3579 -0.4340
 3117TIP3   OH235461   3.664   4.199   6.236 -0.3578 -0.3567 -0.1042
 3117TIP3    H135462   3.675   4.266   6.303 -1.1533 -1.3415  1.0583
 3117TIP3    H235463   3.657   4.248   6.154 -0.0045  0.9144  0.5982
 3118TIP3   OH235464   5.233   1.082   6.101 -0.2859  0.0108 -0.0278
 3118TIP3    H135465   5.167   1.142   6.067 -0.2981  0.5545  0.9247
 3118TIP3    H235466   5.275   1.129   6.173  0.4374 -0.7191  0.0582
 3119TIP3   OH235467   0.569   0.772   7.175  0.3624 -0.5434  0.1010
 3119TIP3    H135468   0.616   0.846   7.138 -0.6436 -0.2718 -0.6781
 3119TIP3    H235469   0.492   0.761   7.119 -1.3648  0.0528  2.2156
 3120TIP3   OH235470   7.862   7.393   7.906  0.1219 -0.2421 -0.1324
 3120TIP3    H135471   7.851   7.370   7.998  2.3294  0.5053  0.3777
 3120TIP3    H235472   7.773   7.402   7.873 -0.8289 -3.5499  1.0977
 3121TIP3   OH235473   2.928   3.045   1.657  0.0752 -0.4706  0.5649
 3121TIP3    H135474   2.974   3.041   1.573  0.5574  2.0727  0.6118
 3121TIP3    H235475   2.841   3.078   1.634 -1.0091 -2.9993  0.7489
 3122TIP3   OH235476   7.102   3.490   1.584  0.1931 -0.7151  0.4675
 3122TIP3    H135477   7.162   3.426   1.625 -0.1628 -1.6711 -0.4521
 3122TIP3    H235478   7.015   3.458   1.606  0.0019 -1.0578 -0.7358
 3123TIP3   OH235479   7.236   1.315   6.466 -0.1314 -0.1140 -0.1467
 3123TIP3    H135480   7.203   1.298   6.555  0.2159  2.9458  0.6901
 3123TIP3    H235481   7.158   1.312   6.411 -0.3965 -1.7666  0.2610
 3124TIP3   OH235482   1.485   5.309   7.099  0.4465 -0.5245 -0.4112
 3124TIP3    H135483   1.496   5.271   7.187  0.2598  0.5876  0.1056
 3124TIP3    H235484   1.567   5.356   7.084  1.1058 -1.9529 -1.4870
 3125TIP3   OH235485   3.118   6.518   1.348 -0.3970 -0.3140 -0.0683
 3125TIP3    H135486   3.122   6.445   1.286  0.0299 -0.5045  0.1774
 3125TIP3    H235487   3.148   6.594   1.298  1.7645 -0.8096  0.3922
 3126TIP3   OH235488   7.879   6.183   1.056  0.1280  0.2197  0.0714
 3126TIP3    H135489   7.963   6.165   1.099  0.4313 -0.2912 -0.6971
 3126TIP3    H235490   7.903   6.223   0.973 -0.3471 -0.6496 -0.5018
 3127TIP3   OH235491   7.768   2.826   2.466  0.1882 -0.5815 -0.1247
 3127TIP3    H135492   7.850   2.863   2.434 -0.1083  0.0541 -0.1603
 3127TIP3    H235493   7.742   2.883   2.539  0.4717 -1.5752  0.7786
 3128TIP3   OH235494   1.928   0.671   1.144 -0.3399  0.5789  0.2306
 3128TIP3    H135495   1.928   0.620   1.225  0.4507 -2.5622 -1.5729
 3128TIP3    H235496   1.837   0.699   1.133 -0.4736  1.0061  2.0833
 3129TIP3   OH235497   6.510   4.689   0.448  0.0744 -0.3787 -0.0891
 3129TIP3    H135498   6.551   4.608   0.419  2.9381  0.1935  1.9280
 3129TIP3    H235499   6.491   4.676   0.541 -0.4505  0.8529  0.0059
 3130TIP3   OH235500   4.064   1.369   6.348 -0.6972  0.0528 -0.1911
 3130TIP3    H135501   4.068   1.343   6.256 -0.4378  1.5616 -0.6347
 3130TIP3    H235502   4.097   1.293   6.396  0.8040 -0.1311 -1.4600
 3131TIP3   OH235503   3.550   4.949   6.047 -0.2161 -0.0820  0.6031
 3131TIP3    H135504   3.570   5.009   6.119  0.8046 -1.4482  1.5090
 3131TIP3    H235505   3.458   4.926   6.060  0.0546 -0.6111  1.7303
 3132TIP3   OH235506   3.532   1.688   1.729 -0.4779 -0.4708  0.4802
 3132TIP3    H135507   3.541   1.720   1.819 -1.6716 -0.4200  0.5923
 3132TIP3    H235508   3.522   1.767   1.677  1.7617 -0.3994  0.0704
 3133TIP3   OH235509   4.693   6.529   6.387 -0.0175  0.0810 -0.0591
 3133TIP3    H135510   4.724   6.530   6.477  1.7069  2.8944 -0.5572
 3133TIP3    H235511   4.604   6.566   6.392 -0.1092 -0.2105  0.5238
 3134TIP3   OH235512   4.930   2.096   0.908  0.3580 -0.1448  0.2595
 3134TIP3    H135513   4.842   2.062   0.889 -0.6553  3.3129 -2.0747
 3134TIP3    H235514   4.988   2.042   0.855 -0.6989 -0.5898 -0.4810
 3135TIP3   OH235515   6.714   2.207   6.169  0.2184 -0.4376  0.5174
 3135TIP3    H135516   6.706   2.302   6.161  0.8927 -0.4081  0.0311
 3135TIP3    H235517   6.802   2.193   6.204 -0.3105 -0.8502  1.7281
 3136TIP3   OH235518   5.918   1.250   6.635 -0.1936 -0.1787  0.1726
 3136TIP3    H135519   5.946   1.170   6.680 -0.8933  0.1897  1.3045
 3136TIP3    H235520   5.984   1.264   6.568  0.1072 -1.5354  0.1690
 3137TIP3   OH235521   8.091   6.487   0.504 -0.4024  0.2468  0.2777
 3137TIP3    H135522   8.182   6.463   0.488 -0.3496 -0.1985  1.1628
 3137TIP3    H235523   8.094   6.535   0.587 -1.4595 -3.5304  2.7363
 3138TIP3   OH235524   2.613   0.434   0.199  0.4586  0.8730  0.6795
 3138TIP3    H135525   2.660   0.351   0.209 -1.1476 -0.0099  1.1685
 3138TIP3    H235526   2.634   0.483   0.278  0.4913  0.4514  0.9356
 3139TIP3   OH235527   5.173   2.869   5.986 -0.5038 -0.4136 -0.2362
 3139TIP3    H135528   5.177   2.785   6.032  1.1652  0.1509  0.7187
 3139TIP3    H235529   5.143   2.931   6.052  0.9537  0.2276 -0.1419
 3140TIP3   OH235530   7.856   6.274   0.791 -0.0427  0.3963  0.6216
 3140TIP3    H135531   7.870   6.368   0.808  2.4455  0.9951 -3.4242
 3140TIP3    H235532   7.768   6.269   0.754 -1.2474  0.5843  3.2131
 3141TIP3   OH235533   0.588   0.804   6.799 -0.2161  0.0482 -0.0540
 3141TIP3    H135534   0.506   0.853   6.791  0.3358  0.7135 -2.3329
 3141TIP3    H235535   0.657   0.870   6.784  0.6893 -0.7427  0.5215
 3142TIP3   OH235536   3.008   8.095   6.793 -0.0564 -0.1566  0.5246
 3142TIP3    H135537   2.994   8.189   6.796 -0.4255 -0.1581 -0.6129
 3142TIP3    H235538   2.920   8.057   6.791  0.0616 -0.4170 -1.0766
 3143TIP3   OH235539   6.998   0.663   0.687 -0.1776 -0.4226 -0.3100
 3143TIP3    H135540   6.920   0.644   0.635  0.3332 -1.8733 -0.6026
 3143TIP3    H235541   7.065   0.683   0.621 -0.3193  1.0178 -0.0537
 3144TIP3   OH235542   4.519   2.991   1.552  0.6151 -0.0349  0.7096
 3144TIP3    H135543   4.596   2.944   1.585 -0.5127 -1.5568  1.2790
 3144TIP3    H235544   4.467   3.010   1.630 -0.0719  0.0995  0.2261
 3145TIP3   OH235545   6.595   6.632   5.807  0.5054  0.5694 -0.1356
 3145TIP3    H135546   6.677   6.638   5.758  0.2530  1.9461 -0.4185
 3145TIP3    H235547   6.553   6.553   5.772  0.6765  1.0969 -1.6177
 3146TIP3   OH235548   6.154   4.750   1.963  0.8923 -0.5020 -0.5347
 3146TIP3    H135549   6.175   4.661   1.989  0.1869 -0.1949  1.2396
 3146TIP3    H235550   6.142   4.746   1.868  0.6864 -2.3193 -0.4516
 3147TIP3   OH235551   5.502   4.396   0.593 -0.2755 -0.3136  0.3830
 3147TIP3    H135552   5.512   4.490   0.607  0.7698 -0.3326 -0.1492
 3147TIP3    H235553   5.500   4.386   0.498 -1.2432 -0.7602  0.4391
 3148TIP3   OH235554   0.648   7.917   6.007 -0.3944 -0.0496  0.4402
 3148TIP3    H135555   0.609   7.987   5.956 -1.0460  0.6557  1.8329
 3148TIP3    H235556   0.668   7.849   5.944  0.9789  1.6718 -1.0879
 3149TIP3   OH235557   3.286   4.166   6.653 -0.4734 -0.6043 -0.5229
 3149TIP3    H135558   3.340   4.135   6.580  2.2022  1.0312  0.6237
 3149TIP3    H235559   3.258   4.254   6.627 -0.1189 -0.3019  0.0866
 3150TIP3   OH235560   3.219   5.735   7.909  0.2551  0.7324  0.4600
 3150TIP3    H135561   3.133   5.776   7.900  0.4585  0.9046 -0.8949
 3150TIP3    H235562   3.211   5.651   7.863  0.5101  0.2710  1.2410
 3151TIP3   OH235563   0.972   0.623   6.998  0.2676 -0.0606  0.5752
 3151TIP3    H135564   0.878   0.607   7.012  0.3784 -0.0939  1.3359
 3151TIP3    H235565   1.015   0.547   7.038  0.5765 -0.7590 -1.0042
 3152TIP3   OH235566   0.214   1.636   2.136 -0.1101  0.5671  0.5375
 3152TIP3    H135567   0.127   1.634   2.174 -0.7808 -0.6118 -0.9642
 3152TIP3    H235568   0.222   1.723   2.098 -1.0428  0.3400 -0.2012
 3153TIP3   OH235569   1.506   7.494   1.727  0.0488 -0.6235 -0.3023
 3153TIP3    H135570   1.506   7.500   1.822 -0.6245 -0.7752 -0.2903
 3153TIP3    H235571   1.436   7.553   1.699  0.7114 -0.0258 -0.7453
 3154TIP3   OH235572   2.945   4.782   1.043 -0.3867  0.6718  0.7522
 3154TIP3    H135573   3.012   4.746   0.986 -1.9538 -0.7352 -0.3030
 3154TIP3    H235574   2.970   4.874   1.056  1.0828  0.4801 -0.5475
 3155TIP3   OH235575   2.221   4.346   5.575 -0.5468 -0.3790  0.8060
 3155TIP3    H135576   2.137   4.383   5.603 -0.6978 -0.8244  0.9605
 3155TIP3    H235577   2.204   4.252   5.570 -0.5323 -0.3275 -0.7969
 3156TIP3   OH235578   7.367   6.034   1.292 -0.2711 -0.0313 -0.1509
 3156TIP3    H135579   7.302   5.963   1.291 -1.4634  0.9851  1.3486
 3156TIP3    H235580   7.333   6.097   1.227 -0.5140  0.2584  0.2536
 3157TIP3   OH235581   4.845   7.812   7.696 -0.3895  0.1679  0.1310
 3157TIP3    H135582   4.912   7.845   7.755 -0.6653  0.6200  0.1941
 3157TIP3    H235583   4.869   7.846   7.610  0.0496 -0.5449 -0.0370
 3158TIP3   OH235584   3.505   1.002   1.031  0.0844  0.4668 -0.1108
 3158TIP3    H135585   3.545   0.920   1.061 -2.4577 -0.3477  1.4137
 3158TIP3    H235586   3.558   1.071   1.071 -1.2215 -0.5637  3.9354
 3159TIP3   OH235587   1.889   3.511   1.898 -0.8191 -0.2640 -0.4480
 3159TIP3    H135588   1.808   3.560   1.885 -1.1104 -0.1843  1.4570
 3159TIP3    H235589   1.861   3.420   1.909 -0.7776 -0.1152  1.1314
 3160TIP3   OH235590   4.170   6.106   7.605 -0.2139 -0.1509 -0.5076
 3160TIP3    H135591   4.247   6.064   7.643  0.2486  0.7350 -0.4357
 3160TIP3    H235592   4.134   6.041   7.544 -1.7523 -2.1731  2.3019
 3161TIP3   OH235593   7.449   6.554   0.944  0.1961 -0.0332 -0.3964
 3161TIP3    H135594   7.438   6.518   0.856 -0.5080  0.8467 -0.6817
 3161TIP3    H235595   7.362   6.586   0.968  0.0491 -1.4394  1.1595
 3162TIP3   OH235596   2.247   7.349   7.643 -0.1619 -0.2100  0.2047
 3162TIP3    H135597   2.314   7.282   7.630  0.1701  0.3042 -0.8904
 3162TIP3    H235598   2.174   7.303   7.684 -0.2308 -1.4317 -1.1994
 3163TIP3   OH235599   1.301   5.972   0.080 -0.0564 -0.1243  0.2097
 3163TIP3    H135600   1.352   5.926   0.013 -0.9851 -0.1397 -0.5272
 3163TIP3    H235601   1.275   5.903   0.141 -0.8259 -0.4859 -0.4907
 3164TIP3   OH235602   7.724   0.920   0.305 -0.2945 -0.0361  0.2259
 3164TIP3    H135603   7.693   0.970   0.230  0.5602  0.6412  0.3091
 3164TIP3    H235604   7.791   0.976   0.345  0.3820 -1.0646  0.5684
 3165TIP3   OH235605   4.675   6.057   7.860 -0.2828  0.1332  0.4665
 3165TIP3    H135606   4.724   6.131   7.895  0.2899 -0.1437  0.2664
 3165TIP3    H235607   4.735   6.016   7.797 -1.3503  0.7125 -0.9715
 3166TIP3   OH235608   3.581   4.668   2.179 -0.5308  0.1820 -0.1128
 3166TIP3    H135609   3.597   4.650   2.271 -1.0662 -1.0025 -0.2241
 3166TIP3    H235610   3.518   4.600   2.152 -2.5985  2.1901 -0.6472
 3167TIP3   OH235611   5.923   7.379   0.580  0.4741  0.0659  0.1887
 3167TIP3    H135612   5.935   7.347   0.669 -2.7724 -1.9528  0.0638
 3167TIP3    H235613   5.833   7.412   0.578  0.9039  1.3810 -2.0208
 3168TIP3   OH235614   4.292   2.601   1.448  0.7383 -0.0694 -0.0059
 3168TIP3    H135615   4.216   2.618   1.504  0.4765 -1.0718 -0.0292
 3168TIP3    H235616   4.300   2.506   1.447  1.9982  0.0168 -0.0184
 3169TIP3   OH235617   0.693   3.768   7.225  0.0013 -0.5318 -0.7908
 3169TIP3    H135618   0.756   3.805   7.162  1.7231 -0.9294  0.6141
 3169TIP3    H235619   0.635   3.841   7.246  0.7847  0.2159 -1.1694
 3170TIP3   OH235620   3.427   6.587   7.794 -0.4764  0.6491 -0.2964
 3170TIP3    H135621   3.424   6.551   7.706 -0.2441 -1.0102  0.3436
 3170TIP3    H235622   3.335   6.591   7.822 -0.4756  0.1557 -0.2200
 3171TIP3   OH235623   2.475   4.772   7.327 -0.2841 -0.2400 -0.2123
 3171TIP3    H135624   2.510   4.817   7.404  1.6247 -2.3778  0.2596
 3171TIP3    H235625   2.402   4.720   7.360  1.9037 -2.9051  0.7292
 3172TIP3   OH235626   1.695   2.086   6.496  0.4170 -0.4755  0.4811
 3172TIP3    H135627   1.669   2.105   6.407  1.2423 -2.9889 -0.3852
 3172TIP3    H235628   1.687   2.169   6.542  1.4232  1.2621 -2.2697
 3173TIP3   OH235629   1.268   7.687   6.285 -0.5978  0.4534 -0.2355
 3173TIP3    H135630   1.214   7.722   6.355  0.7816 -2.1108  2.3179
 3173TIP3    H235631   1.355   7.720   6.303 -0.4722  0.9889 -1.7051
 3174TIP3   OH235632   7.397   7.127   7.254  0.1438  0.8075  0.4663
 3174TIP3    H135633   7.415   7.086   7.339  0.8602  0.1500  0.0123
 3174TIP3    H235634   7.360   7.056   7.201  0.8140  0.8941 -0.1313
 3175TIP3   OH235635   7.479   4.106   6.559  0.7773 -0.3098  0.4604
 3175TIP3    H135636   7.434   4.189   6.543  0.3850  0.3642  4.0803
 3175TIP3    H235637   7.564   4.132   6.595  2.3873 -1.5845 -2.1644
 3176TIP3   OH235638   2.328   2.324   0.691 -1.1905 -0.2712 -0.4857
 3176TIP3    H135639   2.359   2.233   0.698  0.9658  0.5149  1.9084
 3176TIP3    H235640   2.264   2.332   0.763 -2.6707 -0.2773 -1.7466
 3177TIP3   OH235641   2.349   0.010   6.294 -0.2093 -0.4310 -0.2841
 3177TIP3    H135642   2.353  -0.050   6.219  0.6497 -2.0921  1.0374
 3177TIP3    H235643   2.258   0.007   6.322 -0.1805 -1.1042 -0.2473
 3178TIP3   OH235644   2.544   5.224   6.101 -0.3047  0.3502 -0.1766
 3178TIP3    H135645   2.489   5.302   6.098  2.2260  2.2908  0.3709
 3178TIP3    H235646   2.539   5.188   6.012 -1.7106  0.9585 -0.3726
 3179TIP3   OH235647   7.676   5.897   6.264  0.0984 -0.7431  0.2619
 3179TIP3    H135648   7.734   5.956   6.216 -0.0400 -0.2139  0.7252
 3179TIP3    H235649   7.592   5.906   6.221  0.2210 -1.0564 -0.0405
 3180TIP3   OH235650   2.441   1.625   1.841  0.2382 -0.5165 -0.5865
 3180TIP3    H135651   2.518   1.582   1.877 -0.4438 -0.4884  1.0015
 3180TIP3    H235652   2.461   1.719   1.845  0.0117 -0.4906  0.1567
 3181TIP3   OH235653   3.564   6.867   0.656  0.0443 -0.5379  0.0505
 3181TIP3    H135654   3.510   6.877   0.734  0.2238  1.5586 -0.0398
 3181TIP3    H235655   3.653   6.889   0.685  0.2894 -0.7376 -0.5214
 3182TIP3   OH235656   6.909   7.278   0.999 -0.2637 -0.2018 -0.2929
 3182TIP3    H135657   6.939   7.201   0.951 -1.2194 -0.9218  0.2168
 3182TIP3    H235658   6.855   7.327   0.937 -0.6523 -0.5909 -0.2646
 3183TIP3   OH235659   4.242   0.212   6.510  0.3668 -0.2715  0.4278
 3183TIP3    H135660   4.274   0.170   6.590 -0.4457  2.8664  2.5810
 3183TIP3    H235661   4.147   0.216   6.522 -0.1992 -2.3471 -2.1928
 3184TIP3   OH235662   1.221   1.159   2.054  0.3815  0.0675 -0.0138
 3184TIP3    H135663   1.313   1.167   2.030 -0.1556  1.8356 -1.7851
 3184TIP3    H235664   1.198   1.243   2.092 -0.9410  0.3982 -1.4192
 3185TIP3   OH235665   3.585   4.223   1.171  0.6108 -0.3083  0.0602
 3185TIP3    H135666   3.589   4.316   1.150  2.0700  0.0213  1.6006
 3185TIP3    H235667   3.676   4.194   1.171  0.3135 -1.3361  1.2364
 3186TIP3   OH235668   2.385   2.022   0.241  0.5354  0.1148 -0.0021
 3186TIP3    H135669   2.467   2.047   0.201  0.4962  0.9375  0.4142
 3186TIP3    H235670   2.335   2.103   0.247 -0.2197 -0.3367 -0.0518
 3187TIP3   OH235671   7.569   3.602   6.508  0.0605  0.1442  0.3297
 3187TIP3    H135672   7.599   3.514   6.532  2.6233  0.9598  0.4501
 3187TIP3    H235673   7.545   3.642   6.591  0.8184  0.1827  0.5437
 3188TIP3   OH235674   1.837   1.116   1.604  0.0411  0.0067  0.0199
 3188TIP3    H135675   1.763   1.143   1.659  0.8315  1.4731  0.4138
 3188TIP3    H235676   1.807   1.036   1.561 -1.6848  0.4277  0.3632
 3189TIP3   OH235677   1.887   2.833   0.188 -0.3477 -0.2503 -0.3558
 3189TIP3    H135678   1.916   2.795   0.105  1.4589  0.9403 -0.3246
 3189TIP3    H235679   1.934   2.782   0.255  1.2732  1.2573 -0.2731
 3190TIP3   OH235680   0.376   3.060   1.706  0.6587 -0.1951  0.0218
 3190TIP3    H135681   0.459   3.075   1.661  0.3460  0.8658 -0.2280
 3190TIP3    H235682   0.366   3.135   1.764  1.3290 -1.7894  2.3453
 3191TIP3   OH235683   4.334   4.699   0.687  0.1880 -0.1471 -0.6488
 3191TIP3    H135684   4.258   4.692   0.630  1.0172  0.5242 -1.8779
 3191TIP3    H235685   4.382   4.775   0.655 -0.0536  1.2066  1.8806
 3192TIP3   OH235686   7.280   5.049   1.008  0.1482 -0.6029  0.3168
 3192TIP3    H135687   7.287   5.135   0.967  0.9354  0.3714  2.3484
 3192TIP3    H235688   7.361   5.004   0.985  0.8028  0.1193  1.1417
 3193TIP3   OH235689   3.061   6.256   1.143 -0.5870  0.5081 -0.4965
 3193TIP3    H135690   3.043   6.190   1.210 -1.2943 -0.5480 -1.6859
 3193TIP3    H235691   3.120   6.213   1.082  0.4106  1.6108 -0.3341
 3194TIP3   OH235692   5.892   5.441   1.279 -0.3865  0.0356  0.3020
 3194TIP3    H135693   5.802   5.455   1.248 -0.6994 -0.3122  1.0114
 3194TIP3    H235694   5.945   5.442   1.200 -1.0026  0.3548 -0.1207
 3195TIP3   OH235695   2.780   0.304   6.829 -0.0667 -0.2427 -0.1258
 3195TIP3    H135696   2.775   0.269   6.741 -0.4067  2.2261 -1.1727
 3195TIP3    H235697   2.775   0.227   6.886  3.4194 -2.2840 -2.2079
 3196TIP3   OH235698   3.894   7.341   5.887  0.3826  0.0431 -0.0832
 3196TIP3    H135699   3.853   7.388   5.814 -0.5591 -0.0657  0.3586
 3196TIP3    H235700   3.987   7.357   5.876  0.0968  2.0313  0.0615
 3197TIP3   OH235701   7.186   4.126   0.379  0.1188 -0.8152  0.6686
 3197TIP3    H135702   7.098   4.090   0.389 -0.0217 -0.7245 -0.1349
 3197TIP3    H235703   7.239   4.079   0.443 -0.3930 -1.3065  0.7376
 3198TIP3   OH235704   6.535   3.832   1.160  0.8479 -0.0213 -0.2403
 3198TIP3    H135705   6.629   3.828   1.177  0.9297  1.5246 -0.2022
 3198TIP3    H235706   6.502   3.895   1.224 -0.3819 -1.2290  0.3642
 3199TIP3   OH235707   7.841   2.037   7.878  0.1359  0.0417  0.5422
 3199TIP3    H135708   7.786   2.113   7.897  0.3847  0.1072  1.0012
 3199TIP3    H235709   7.783   1.962   7.889  0.4274  0.0324  2.2027
 3200TIP3   OH235710   0.815   2.954   0.608  0.8637 -0.5061 -0.1760
 3200TIP3    H135711   0.873   2.959   0.532 -0.9973 -0.4755 -1.6705
 3200TIP3    H235712   0.842   2.873   0.652  2.3544 -0.2294 -0.5090
 3201TIP3   OH235713   0.949   1.695   0.050  0.0230  0.3518  0.1315
 3201TIP3    H135714   0.987   1.693   0.138  2.1402 -1.4686 -0.7207
 3201TIP3    H235715   0.965   1.784   0.019 -0.3520  0.8856  1.4011
 3202TIP3   OH235716   5.468   7.149   0.105 -0.5196 -0.1839  0.2250
 3202TIP3    H135717   5.395   7.207   0.126  0.1103  0.9505 -0.6044
 3202TIP3    H235718   5.432   7.061   0.112 -1.4913  0.2815  1.5777
 3203TIP3   OH235719   6.819   7.903   1.772  0.2852  0.5750 -0.2555
 3203TIP3    H135720   6.908   7.894   1.737  0.3481  0.7323 -0.1368
 3203TIP3    H235721   6.828   7.967   1.842  0.0467  0.7117 -0.3503
 3204TIP3   OH235722   0.108   1.899   1.567 -0.2082 -0.0561 -0.4475
 3204TIP3    H135723   0.196   1.917   1.602 -0.0498 -1.2518 -0.1661
 3204TIP3    H235724   0.048   1.940   1.629  0.1215 -0.6345  0.2668
 3205TIP3   OH235725   5.840   7.064   0.877 -0.6071 -0.1316 -0.2108
 3205TIP3    H135726   5.924   7.044   0.920 -0.5107  0.1548 -0.2687
 3205TIP3    H235727   5.776   7.013   0.927 -0.3310 -0.7651 -0.4919
 3206TIP3   OH235728   2.097   4.252   7.270  0.5060 -0.0087  0.2241
 3206TIP3    H135729   2.104   4.169   7.222  1.2880  0.1787  0.0055
 3206TIP3    H235730   2.012   4.288   7.242 -0.0979 -0.9899  0.7430
 3207TIP3   OH235731   6.066   7.230   5.790  0.0609  0.6014  0.1919
 3207TIP3    H135732   6.126   7.280   5.735  1.1449  0.1056  0.9003
 3207TIP3    H235733   6.072   7.140   5.758 -1.8307  0.8519 -1.0320
 3208TIP3   OH235734   1.664   6.083   7.821  0.3157  0.5975 -0.1908
 3208TIP3    H135735   1.755   6.110   7.827  0.9661 -1.4597 -0.1509
 3208TIP3    H235736   1.638   6.106   7.732  1.1711  0.3370 -0.5134
 3209TIP3   OH235737   2.299   6.719   6.905  0.0611 -0.2789 -0.2736
 3209TIP3    H135738   2.320   6.758   6.820  1.0494 -0.0047  0.0842
 3209TIP3    H235739   2.206   6.696   6.898  0.5654 -2.0910 -2.1384
 3210TIP3   OH235740   4.860   5.609   0.434  0.0814  0.0338 -0.1583
 3210TIP3    H135741   4.789   5.561   0.478 -0.3915 -0.9784 -1.9161
 3210TIP3    H235742   4.938   5.555   0.449  0.4526  0.9651  1.4730
 3211TIP3   OH235743   2.419   3.329   1.883 -0.1684 -0.6625 -0.7381
 3211TIP3    H135744   2.365   3.407   1.892 -0.7722 -1.0250 -1.1310
 3211TIP3    H235745   2.479   3.332   1.958 -0.7911 -0.3008 -0.2442
 3212TIP3   OH235746   2.008   1.073   7.381 -0.4646  0.2836  0.7859
 3212TIP3    H135747   1.949   0.999   7.368 -0.2674  0.0965  0.9516
 3212TIP3    H235748   2.009   1.118   7.296  0.5791 -0.7673  0.2124
 3213TIP3   OH235749   3.965   3.202   7.026 -0.4531  0.7038  0.2291
 3213TIP3    H135750   3.912   3.147   6.967  1.9763 -1.2655 -0.2724
 3213TIP3    H235751   4.027   3.246   6.968 -0.5781  1.8583  0.9436
 3214TIP3   OH235752   0.220   0.113   5.797 -0.1829 -0.3396  0.1756
 3214TIP3    H135753   0.148   0.054   5.773 -0.7319  0.4221 -0.0600
 3214TIP3    H235754   0.224   0.176   5.725 -0.2262  0.4851  0.8841
 3215TIP3   OH235755   2.480   1.365   7.680  0.1302 -0.3066 -0.0281
 3215TIP3    H135756   2.441   1.282   7.653 -0.6513  0.0486  0.0101
 3215TIP3    H235757   2.449   1.379   7.769  1.0163 -0.4292  0.3128
 3216TIP3   OH235758   3.309   8.095   6.381 -0.0576 -0.4907  0.0397
 3216TIP3    H135759   3.397   8.118   6.413 -0.2032  2.3830 -1.3347
 3216TIP3    H235760   3.251   8.114   6.455  0.3269 -1.1741  0.5300
 3217TIP3   OH235761   0.893   0.643   1.051 -0.1522 -0.2714 -0.0890
 3217TIP3    H135762   0.824   0.696   1.012  0.7424  1.0481  0.0303
 3217TIP3    H235763   0.854   0.606   1.130 -1.2104 -0.9181 -0.8966
 3218TIP3   OH235764   3.180   4.120   1.095 -0.4336 -0.2174  0.0455
 3218TIP3    H135765   3.251   4.115   1.159 -0.4337 -0.5728  0.0211
 3218TIP3    H235766   3.206   4.059   1.026  0.0494  0.8986 -0.7755
 3219TIP3   OH235767   3.664   6.803   5.800 -0.0099  0.0445 -0.1593
 3219TIP3    H135768   3.718   6.752   5.860 -0.0994 -0.4281 -0.4765
 3219TIP3    H235769   3.606   6.738   5.759 -0.6921  0.5149  0.0399
 3220TIP3   OH235770   5.580   1.344   0.679 -0.5039  0.5753 -0.5461
 3220TIP3    H135771   5.659   1.290   0.676  0.3713  1.7732 -0.1497
 3220TIP3    H235772   5.572   1.369   0.771 -0.3139  1.8756 -0.8556
 3221TIP3   OH235773   7.703   6.860   6.873 -0.6267  0.2785  0.5170
 3221TIP3    H135774   7.711   6.764   6.877 -1.9829  0.1586  0.6938
 3221TIP3    H235775   7.647   6.876   6.797  1.8472  1.1065 -1.2672
 3222TIP3   OH235776   3.704   1.758   2.011 -0.0658  0.0064  0.2017
 3222TIP3    H135777   3.696   1.662   2.016 -2.4464  0.0646 -1.0575
 3222TIP3    H235778   3.798   1.774   2.016  0.6472 -2.5973 -2.0635
 3223TIP3   OH235779   0.582   5.287   0.841  0.5769  0.0182  0.7638
 3223TIP3    H135780   0.664   5.313   0.797  1.1160 -1.1781  1.0297
 3223TIP3    H235781   0.606   5.210   0.893 -1.3591 -2.3881 -1.6216
 3224TIP3   OH235782   5.071   2.996   0.867  0.1639 -0.1830 -0.1457
 3224TIP3    H135783   5.040   3.056   0.935  1.3279  0.1944  0.0811
 3224TIP3    H235784   5.002   2.998   0.800  0.2158  1.5085 -0.1986
 3225TIP3   OH235785   3.620   3.990   6.464  0.0811  0.2795 -0.2911
 3225TIP3    H135786   3.651   3.981   6.555  1.0262 -1.0386 -0.6978
 3225TIP3    H235787   3.608   4.084   6.452 -0.1731  0.4788  1.2264
 3226TIP3   OH235788   0.688   4.361   0.628  0.2590 -0.4655 -0.5781
 3226TIP3    H135789   0.663   4.434   0.686  0.6169 -0.6692 -0.1633
 3226TIP3    H235790   0.729   4.403   0.553 -1.9489 -0.0551 -1.6364
 3227TIP3   OH235791   6.893   7.366   7.831 -0.1103  0.6225  0.3080
 3227TIP3    H135792   6.921   7.455   7.852  1.0098  0.5683 -0.8205
 3227TIP3    H235793   6.930   7.312   7.900  1.6912  0.7017 -0.5358
 3228TIP3   OH235794   1.574   3.900   0.037 -0.2761  0.2852 -0.4319
 3228TIP3    H135795   1.615   3.971   0.086 -2.4502  1.9340 -0.8056
 3228TIP3    H235796   1.629   3.824   0.053  0.6294  1.3951  2.2742
 3229TIP3   OH235797   7.311   1.792   0.818  0.5773  0.2911  0.0398
 3229TIP3    H135798   7.368   1.715   0.823 -0.8952 -0.7415  1.9375
 3229TIP3    H235799   7.283   1.808   0.908 -1.9000  0.9013 -0.7562
 3230TIP3   OH235800   6.498   3.575   2.154  0.4666  0.7720 -0.1403
 3230TIP3    H135801   6.493   3.530   2.238 -2.1486  1.5251  0.1879
 3230TIP3    H235802   6.578   3.627   2.159  0.9302 -0.0237  1.4053
 3231TIP3   OH235803   3.417   8.036   7.694 -0.5701 -0.0062 -0.1223
 3231TIP3    H135804   3.498   8.004   7.655  0.4166  0.7998  1.1923
 3231TIP3    H235805   3.416   8.130   7.673 -2.9340 -0.5383 -3.0970
 3232TIP3   OH235806   6.928   1.978   0.911 -0.0350  0.2516 -0.7021
 3232TIP3    H135807   7.002   1.992   0.970  1.1138  2.0030 -2.4102
 3232TIP3    H235808   6.853   2.014   0.958  0.2247 -1.1772  0.8973
 3233TIP3   OH235809   0.856   5.548   0.017 -0.4301  0.5770 -0.5324
 3233TIP3    H135810   0.776   5.496   0.027  0.1370 -0.1602  0.2316
 3233TIP3    H235811   0.893   5.519  -0.067  0.5010 -1.1638  0.4175
 3234TIP3   OH235812   3.337   1.709   0.578  0.2847 -0.0050  0.5869
 3234TIP3    H135813   3.343   1.643   0.646  0.5883 -1.5210 -0.8606
 3234TIP3    H235814   3.252   1.751   0.593 -0.1525 -1.0773  1.2179
 3235TIP3   OH235815   4.268   7.967   6.936  0.7240  0.0120 -0.1183
 3235TIP3    H135816   4.344   7.911   6.926  0.3503 -0.5752  0.2936
 3235TIP3    H235817   4.212   7.922   6.999 -0.4535 -0.0910 -1.1953
 3236TIP3   OH235818   0.732   1.866   6.666 -0.2618  0.4051  0.2381
 3236TIP3    H135819   0.656   1.808   6.662 -0.9598  1.2978  0.2182
 3236TIP3    H235820   0.700   1.946   6.707  0.6130  0.8886  0.0165
 3237TIP3   OH235821   3.417   0.395   5.900  0.1290  0.5133  0.1902
 3237TIP3    H135822   3.507   0.424   5.911 -0.6530  2.5016  2.2451
 3237TIP3    H235823   3.368   0.475   5.882 -1.0312 -0.7747 -3.1366
 3238TIP3   OH235824   5.609   6.640   7.495 -0.1699  0.0473  0.0363
 3238TIP3    H135825   5.646   6.564   7.451  1.4910  1.0189 -0.3348
 3238TIP3    H235826   5.683   6.679   7.542 -1.1237  1.0550  0.7624
 3239TIP3   OH235827   3.661   4.960   7.085  0.3990 -0.6832 -0.3080
 3239TIP3    H135828   3.682   5.036   7.031 -3.2004  0.5926 -0.1574
 3239TIP3    H235829   3.584   4.921   7.043 -0.3917 -1.7175  1.9560
 3240TIP3   OH235830   1.187   0.206   0.693 -0.0855 -0.2205 -0.0893
 3240TIP3    H135831   1.099   0.191   0.661 -0.5982 -0.7065  1.4292
 3240TIP3    H235832   1.244   0.171   0.625 -1.0609  0.1017 -1.0916
 3241TIP3   OH235833   2.299   2.878   7.200  0.0651 -0.4577  0.0104
 3241TIP3    H135834   2.215   2.908   7.165  1.0160 -0.1804 -2.1921
 3241TIP3    H235835   2.340   2.957   7.236 -0.2300 -0.4375  0.3146
 3242TIP3   OH235836   5.145   0.266   7.627  0.6326 -0.3005  0.1654
 3242TIP3    H135837   5.181   0.311   7.550  1.5480  0.0134  0.7570
 3242TIP3    H235838   5.055   0.299   7.634  1.1043  1.0659  0.2722
 3243TIP3   OH235839   3.952   5.990   5.643 -0.0442  0.2328  0.6554
 3243TIP3    H135840   3.943   6.019   5.552 -1.4228  1.3016  1.0992
 3243TIP3    H235841   4.041   5.955   5.648 -0.1893 -0.5284 -1.2773
 3244TIP3   OH235842   0.661   4.241   7.427  0.2691 -0.0532 -0.2687
 3244TIP3    H135843   0.588   4.303   7.428  0.0101 -0.3063  1.8904
 3244TIP3    H235844   0.735   4.291   7.461 -0.3064 -1.1685  3.0737
 3245TIP3   OH235845   0.125   6.618   7.688  0.0911  0.3660 -0.2400
 3245TIP3    H135846   0.199   6.571   7.728 -1.4765 -1.1979  1.0241
 3245TIP3    H235847   0.146   6.620   7.595  1.5557 -0.3612  0.0336
 3246TIP3   OH235848   0.461   0.170   7.435  0.1474  0.3210 -0.4075
 3246TIP3    H135849   0.424   0.084   7.457 -1.3048  1.2284  0.8287
 3246TIP3    H235850   0.426   0.189   7.349 -1.4749  0.6925  0.3025
 3247TIP3   OH235851   1.742   3.727   0.791  0.1721 -0.8749 -0.4317
 3247TIP3    H135852   1.834   3.752   0.787 -0.3901  1.5077  0.1298
 3247TIP3    H235853   1.710   3.765   0.873 -1.4684 -1.0921 -0.9315
 3248TIP3   OH235854   5.846   7.504   1.304  0.0460  0.3210  0.1546
 3248TIP3    H135855   5.920   7.479   1.248 -1.5967 -0.4991 -1.7882
 3248TIP3    H235856   5.809   7.582   1.262 -1.8097 -0.8732 -0.5609
 3249TIP3   OH235857   1.821   7.658   6.624  0.0539  0.2024 -0.3084
 3249TIP3    H135858   1.881   7.712   6.572  1.3055 -0.8677 -0.0533
 3249TIP3    H235859   1.862   7.654   6.711 -0.6661 -0.1302  0.0185
 3250TIP3   OH235860   1.852   7.138   7.530  0.6610 -0.3810 -0.0085
 3250TIP3    H135861   1.855   7.184   7.446  2.2968 -0.3119  0.0461
 3250TIP3    H235862   1.828   7.205   7.594 -3.5461 -0.9998 -0.6948
 3251TIP3   OH235863   7.342   6.336   0.337  0.0753  0.3736  0.4351
 3251TIP3    H135864   7.328   6.337   0.431 -0.3321 -0.0319  0.3833
 3251TIP3    H235865   7.256   6.355   0.299  0.0229 -0.3971  0.1401
 3252TIP3   OH235866   1.152   0.720   0.686 -0.5289  0.2330  0.0806
 3252TIP3    H135867   1.187   0.640   0.724 -0.4195 -0.7939 -2.0227
 3252TIP3    H235868   1.059   0.702   0.674 -0.5496  0.5066 -0.1783
 3253TIP3   OH235869   6.329   6.619   7.730 -0.4083 -0.3706  0.1326
 3253TIP3    H135870   6.301   6.698   7.683  0.9478 -0.8839 -1.6851
 3253TIP3    H235871   6.418   6.639   7.760 -0.8894 -0.4248  1.6892
 3254TIP3   OH235872   0.118   5.532   1.052 -0.3227 -0.0562  0.7237
 3254TIP3    H135873   0.204   5.515   1.090  0.1022  1.9586  0.7345
 3254TIP3    H235874   0.124   5.620   1.015 -2.2165 -0.0862  0.2243
 3255TIP3   OH235875   7.911   1.483   0.740  0.1303 -0.6139  0.3972
 3255TIP3    H135876   7.998   1.489   0.780  0.0569  0.8731  0.3872
 3255TIP3    H235877   7.853   1.525   0.804 -0.2648  0.1451 -0.4331
 3256TIP3   OH235878   4.151   5.300   0.239 -0.5346 -0.5418 -0.6749
 3256TIP3    H135879   4.179   5.327   0.151 -0.5527  0.0361 -0.5047
 3256TIP3    H235880   4.158   5.205   0.237 -0.2626 -0.5189 -1.2138
 3257TIP3   OH235881   6.364   0.285   1.172  0.3182 -0.3388 -0.3829
 3257TIP3    H135882   6.298   0.301   1.239  0.3049  0.8884 -0.6614
 3257TIP3    H235883   6.428   0.356   1.184  2.3691 -2.2889  0.8108
 3258TIP3   OH235884   5.149   0.039   1.798 -0.3974 -0.1337 -0.0542
 3258TIP3    H135885   5.175  -0.047   1.832  0.3576 -0.0032 -0.2740
 3258TIP3    H235886   5.194   0.102   1.855 -0.6302  0.1075 -0.1345
 3259TIP3   OH235887   5.430   0.837   2.547 -0.1342  0.3562  1.0926
 3259TIP3    H135888   5.375   0.902   2.504  0.8062 -0.3963 -1.4414
 3259TIP3    H235889   5.368   0.781   2.594 -1.2909  0.9561  0.3292
 3260TIP3   OH235890   1.662   5.215   6.459 -0.4588  0.2333 -0.2038
 3260TIP3    H135891   1.580   5.266   6.466 -0.1214  0.7209  0.2971
 3260TIP3    H235892   1.686   5.197   6.550  0.4862  0.9127 -0.3070
 3261TIP3   OH235893   1.749   2.588   6.891  0.3174 -0.5766 -0.0934
 3261TIP3    H135894   1.754   2.684   6.889  0.5232 -0.5487  1.0050
 3261TIP3    H235895   1.836   2.559   6.865 -0.4097 -0.5482 -2.8640
 3262TIP3   OH235896   2.063   8.004   0.258 -0.1609 -0.2308 -0.0980
 3262TIP3    H135897   2.153   7.995   0.290  0.1218 -0.7661 -1.0266
 3262TIP3    H235898   2.067   7.978   0.166 -0.6393  2.7166 -1.0764
 3263TIP3   OH235899   2.257   3.549   1.952  0.5074  0.5227 -0.8815
 3263TIP3    H135900   2.237   3.563   2.045  1.1601 -0.5973 -0.5530
 3263TIP3    H235901   2.206   3.615   1.906  0.1553  1.0778  0.2779
 3264TIP3   OH235902   4.884   6.733   6.306 -0.0037 -0.7329  0.2393
 3264TIP3    H135903   4.819   6.664   6.317 -1.5715  0.6295 -0.1338
 3264TIP3    H235904   4.904   6.732   6.212  1.0306 -1.5412  0.4374
 3265TIP3   OH235905   1.064   8.045   0.041  0.0023  0.2207  0.3213
 3265TIP3    H135906   1.027   8.009   0.121 -2.8539 -1.0188 -1.4041
 3265TIP3    H235907   1.141   7.991   0.023  0.3785  0.1934  1.9028
 3266TIP3   OH235908   4.898   0.285   0.274  0.1228  0.0611 -0.3900
 3266TIP3    H135909   4.992   0.304   0.270 -0.2267  1.7150 -1.7101
 3266TIP3    H235910   4.860   0.336   0.202 -1.7968 -0.5637  0.1267
 3267TIP3   OH235911   4.027   5.685   0.617 -0.3283  0.2011 -0.3332
 3267TIP3    H135912   4.028   5.600   0.571  2.2277 -0.5244  0.8960
 3267TIP3    H235913   3.936   5.714   0.610 -1.6836 -3.3031  0.3768
 3268TIP3   OH235914   1.633   2.741   5.415 -0.0148 -0.5166 -0.1696
 3268TIP3    H135915   1.643   2.836   5.412  2.5782 -0.5569  2.4325
 3268TIP3    H235916   1.546   2.727   5.453  0.2301  0.8916  1.0131
 3269TIP3   OH235917   2.060   2.276   7.901  0.0294 -0.3232  0.6539
 3269TIP3    H135918   1.981   2.243   7.944 -0.4914 -0.3280 -0.2839
 3269TIP3    H235919   2.031   2.358   7.859  0.4863 -0.3882  0.2054
 3270TIP3   OH235920   4.895   6.668   0.739  0.1540  0.5018  0.3432
 3270TIP3    H135921   4.925   6.604   0.675  0.7326  0.4652  0.6391
 3270TIP3    H235922   4.945   6.747   0.720  1.0068  0.2171  1.3138
 3271TIP3   OH235923   2.510   7.672   2.044 -0.9441 -0.0906 -0.0384
 3271TIP3    H135924   2.500   7.747   1.985  0.7863  0.8188  0.7542
 3271TIP3    H235925   2.427   7.625   2.037 -2.7853  2.7698  0.6633
 3272TIP3   OH235926   6.443   1.632   1.631  0.2581 -0.6037  0.0527
 3272TIP3    H135927   6.511   1.650   1.696 -0.2945  0.3728  0.3797
 3272TIP3    H235928   6.382   1.573   1.675 -0.8762  1.1669  0.9693
 3273TIP3   OH235929   5.888   1.819   1.338  0.4981 -0.0918  0.4301
 3273TIP3    H135930   5.939   1.807   1.418  1.4970  0.3736 -0.1174
 3273TIP3    H235931   5.948   1.796   1.267 -0.4942 -0.8742 -0.1872
 3274TIP3   OH235932   4.963   3.627   2.448 -0.6319  0.3489  0.6280
 3274TIP3    H135933   5.011   3.709   2.465  1.6817 -0.8889  0.3993
 3274TIP3    H235934   4.981   3.572   2.524  0.1937 -0.9669 -0.4776
 3275TIP3   OH235935   4.204   5.269   5.772  0.2181  0.1536  0.0637
 3275TIP3    H135936   4.296   5.245   5.774 -0.0876 -1.0440  0.4910
 3275TIP3    H235937   4.158   5.190   5.797 -0.9676  0.5779 -0.6772
 3276TIP3   OH235938   1.603   0.765   0.158  0.5398  0.2371  0.5045
 3276TIP3    H135939   1.629   0.812   0.238 -0.3856  1.0968  0.3260
 3276TIP3    H235940   1.570   0.834   0.100 -2.4721 -0.7262  0.8595
 3277TIP3   OH235941   5.652   4.685   1.135 -0.7388  0.2802  0.7023
 3277TIP3    H135942   5.642   4.590   1.132  0.9627  0.0570  0.7782
 3277TIP3    H235943   5.693   4.708   1.051  0.1718  0.7378  1.2525
 3278TIP3   OH235944   1.383   2.207   6.733  0.5096  0.3522  0.0277
 3278TIP3    H135945   1.359   2.235   6.822  0.5299  0.3939  0.0203
 3278TIP3    H235946   1.353   2.116   6.728  0.6234  0.3079  0.1229
 3279TIP3   OH235947   3.747   6.043   0.947  0.5156  0.2879  0.0332
 3279TIP3    H135948   3.759   6.130   0.909 -1.9211  1.1112  0.9875
 3279TIP3    H235949   3.837   6.011   0.961  1.4887  1.5558 -2.6020
 3280TIP3   OH235950   0.453   3.804   1.080 -1.1685 -0.5219 -0.3896
 3280TIP3    H135951   0.455   3.883   1.025  0.5235 -0.4115 -0.2309
 3280TIP3    H235952   0.364   3.802   1.116 -1.5331  0.7833 -1.1491
 3281TIP3   OH235953   0.306   6.171   0.672 -0.2270 -0.2954  0.4813
 3281TIP3    H135954   0.235   6.113   0.701 -1.5300  0.4254 -1.0735
 3281TIP3    H235955   0.272   6.259   0.687  0.8125  0.0785  0.7291
 3282TIP3   OH235956   7.807   7.374   0.219  0.0216 -0.5765 -0.8366
 3282TIP3    H135957   7.881   7.392   0.277 -0.1968 -0.4560 -0.5932
 3282TIP3    H235958   7.730   7.393   0.272 -0.1903 -0.9890 -0.9934
 3283TIP3   OH235959   7.029   7.397   0.384  0.4629  0.4665  0.8649
 3283TIP3    H135960   7.105   7.409   0.328  0.6938 -0.8805  0.8564
 3283TIP3    H235961   7.063   7.352   0.461 -0.4229 -0.7395  0.5692
 3284TIP3   OH235962   5.353   7.369   0.623  0.0312  0.0042 -0.7282
 3284TIP3    H135963   5.360   7.464   0.611 -3.2195  0.3890 -0.5157
 3284TIP3    H235964   5.396   7.352   0.707  0.4212  1.3260 -0.6390
 3285TIP3   OH235965   1.013   0.670   7.653  0.2242  0.4053 -0.1623
 3285TIP3    H135966   1.081   0.736   7.644  0.7512 -0.0252  0.5163
 3285TIP3    H235967   1.012   0.650   7.747  0.0314 -0.4971 -0.3479
 3286TIP3   OH235968   3.189   8.034   0.168  0.4475 -0.5204  0.2441
 3286TIP3    H135969   3.270   7.983   0.160 -1.6426 -3.9534 -1.3644
 3286TIP3    H235970   3.167   8.059   0.078  0.7351  2.3058  0.8788
 3287TIP3   OH235971   6.085   4.916   5.876  0.5855 -0.5606  0.1910
 3287TIP3    H135972   6.012   4.972   5.903 -0.4067 -1.2189 -1.0345
 3287TIP3    H235973   6.105   4.942   5.786 -0.0229 -2.2516 -0.4799
 3288TIP3   OH235974   4.123   6.279   1.407 -0.3843  0.1393  0.1444
 3288TIP3    H135975   4.199   6.310   1.358  0.3108 -0.7886  0.6045
 3288TIP3    H235976   4.112   6.344   1.476  0.6696 -0.2665  0.7227
 3289TIP3   OH235977   7.223   2.062   2.212 -0.1132 -0.1453  0.3346
 3289TIP3    H135978   7.267   2.041   2.294  0.3025 -1.0081 -0.1020
 3289TIP3    H235979   7.210   2.157   2.216 -2.7831 -0.4886  2.7139
 3290TIP3   OH235980   2.820   5.548   0.082 -0.2781 -0.4708  0.0600
 3290TIP3    H135981   2.858   5.486   0.020  0.6321 -0.3380  0.4652
 3290TIP3    H235982   2.799   5.495   0.159  0.5446 -0.2922  0.4251
 3291TIP3   OH235983   5.229   2.274   7.604  0.0488 -0.1211 -0.1859
 3291TIP3    H135984   5.177   2.354   7.600 -1.2382 -0.9712 -1.6726
 3291TIP3    H235985   5.268   2.275   7.692 -1.1539  1.3792  0.3708
 3292TIP3   OH235986   6.474   2.017   2.323  0.1086  0.0155  0.2440
 3292TIP3    H135987   6.497   1.938   2.371 -0.6927  0.2134  0.9863
 3292TIP3    H235988   6.451   2.081   2.391 -0.8005  0.3807 -0.3794
 3293TIP3   OH235989   5.316   6.384   0.884 -0.5845  0.6657 -0.0899
 3293TIP3    H135990   5.332   6.458   0.943  0.3334 -0.5987  1.3224
 3293TIP3    H235991   5.269   6.321   0.938 -3.2225  0.9718 -1.8609
 3294TIP3   OH235992   2.442   4.197   7.244 -0.3707  0.0619  0.4451
 3294TIP3    H135993   2.479   4.268   7.297 -1.4803  0.8048  0.2519
 3294TIP3    H235994   2.511   4.131   7.241  1.2959  1.7453 -0.6200
 3295TIP3   OH235995   7.210   4.605   1.728 -0.0716  0.4696 -0.4064
 3295TIP3    H135996   7.186   4.691   1.694  0.9077  0.9902  0.1877
 3295TIP3    H235997   7.300   4.615   1.758 -0.4273 -0.3556  1.0323
 3296TIP3   OH235998   2.818   1.995   7.384 -0.1488 -0.1942 -0.3120
 3296TIP3    H135999   2.775   2.013   7.467 -0.8867  2.4099 -1.1700
 3296TIP3    H236000   2.747   1.971   7.325  0.4667 -3.0462 -0.0546
 3297TIP3   OH236001   2.624   6.516   6.454  0.0669  0.8991  0.3438
 3297TIP3    H136002   2.670   6.434   6.437  0.5621  1.4744 -1.3018
 3297TIP3    H236003   2.649   6.540   6.543 -1.1174 -1.3623  1.3662
 3298TIP3   OH236004   0.003   2.566   7.085  0.8569 -0.7456 -0.2549
 3298TIP3    H136005  -0.035   2.614   7.011  0.4241  1.3190  1.2115
 3298TIP3    H236006   0.097   2.566   7.068  1.1681  2.7365  0.7246
 3299TIP3   OH236007   2.163   3.572   6.477 -0.2051 -0.1362  0.1571
 3299TIP3    H136008   2.216   3.608   6.407 -0.5768  2.4040  1.0651
 3299TIP3    H236009   2.221   3.571   6.553 -0.8342  0.6621  0.6590
 3300TIP3   OH236010   4.778   5.738   2.125 -1.0099 -0.1582 -0.4337
 3300TIP3    H136011   4.816   5.654   2.151 -0.1156  0.6150  0.8998
 3300TIP3    H236012   4.683   5.722   2.122 -0.8707 -1.1365  0.0730
 3301TIP3   OH236013   0.799   1.636   1.359 -0.1699 -0.6387 -0.3167
 3301TIP3    H136014   0.759   1.608   1.442  1.8586  1.7950  1.6550
 3301TIP3    H236015   0.889   1.603   1.364  0.1934  0.1872 -1.1902
 3302TIP3   OH236016   6.624   0.848   1.800  0.8764 -0.0232  0.2194
 3302TIP3    H136017   6.701   0.885   1.844 -0.0079  0.3785  1.5120
 3302TIP3    H236018   6.587   0.787   1.864 -0.8417  1.0861  0.3692
 3303TIP3   OH236019   2.479   0.254   6.933  0.2711  0.1217  0.2721
 3303TIP3    H136020   2.492   0.219   7.021 -1.3678 -4.4286 -1.0393
 3303TIP3    H236021   2.549   0.214   6.881 -1.0930 -0.4867 -1.1631
 3304TIP3   OH236022   4.890   3.386   0.757 -0.1994 -0.2365  0.0724
 3304TIP3    H136023   4.799   3.396   0.731  0.4390  1.4908 -1.6516
 3304TIP3    H236024   4.935   3.358   0.678  1.0120  0.3657  0.5270
 3305TIP3   OH236025   1.913   7.817   1.587 -0.0229 -0.1226 -0.4873
 3305TIP3    H136026   1.853   7.886   1.614 -1.3115 -0.7462 -1.5931
 3305TIP3    H236027   1.928   7.833   1.494 -0.9133 -1.6738 -0.9460
 3306TIP3   OH236028   6.189   7.733   6.352 -0.7120  0.0327  0.0226
 3306TIP3    H136029   6.226   7.687   6.427  0.4702 -1.2320 -1.2758
 3306TIP3    H236030   6.114   7.680   6.326 -0.1958 -0.3870 -0.6184
 3307TIP3   OH236031   1.601   2.056   0.069 -0.3140 -0.6153 -0.0137
 3307TIP3    H136032   1.607   2.010  -0.014 -0.0412  2.3465 -1.8074
 3307TIP3    H236033   1.674   2.117   0.068 -1.6992  1.1938  1.2392
 3308TIP3   OH236034   1.636   0.425   0.361  0.1967  0.0321 -0.0475
 3308TIP3    H136035   1.672   0.512   0.383 -0.0723 -0.1129  1.0217
 3308TIP3    H236036   1.586   0.440   0.281  0.3476  0.8211 -0.0081
 3309TIP3   OH236037   3.565   4.818   0.287  0.0693  0.4263  0.1894
 3309TIP3    H136038   3.525   4.753   0.345 -0.1476 -0.8793 -1.3440
 3309TIP3    H236039   3.506   4.894   0.292 -1.5979 -0.7497 -0.5432
 3310TIP3   OH236040   6.928   2.230   0.250  0.3426  0.2299  1.2804
 3310TIP3    H136041   6.860   2.296   0.260 -0.4319 -0.4863  0.8776
 3310TIP3    H236042   6.902   2.160   0.311  1.7245  0.7243  2.5078
 3311TIP3   OH236043   2.759   2.780   6.080  0.1066  0.2816  0.0190
 3311TIP3    H136044   2.817   2.721   6.032 -0.9224 -1.5273  0.9071
 3311TIP3    H236045   2.695   2.808   6.015  1.1720  1.2586 -0.6500
 3312TIP3   OH236046   1.863   4.583   7.810  0.1709  0.0458  0.5608
 3312TIP3    H136047   1.928   4.542   7.753  0.1481 -0.7406  1.0781
 3312TIP3    H236048   1.902   4.666   7.836  0.0011  0.6126 -0.9270
 3313TIP3   OH236049   2.423   7.433   6.213 -0.3456  0.2289 -0.1686
 3313TIP3    H136050   2.446   7.491   6.285  2.4382 -1.8835  0.8103
 3313TIP3    H236051   2.336   7.463   6.185 -1.4026  1.3828  3.7465
 3314TIP3   OH236052   0.164   6.810   1.812  0.1334 -0.3287 -0.4504
 3314TIP3    H136053   0.240   6.777   1.764 -0.5151 -1.6694 -0.5955
 3314TIP3    H236054   0.089   6.782   1.760 -0.5342 -0.5514  0.6031
 3315TIP3   OH236055   2.492   5.128   6.635  0.1178  0.5923 -0.3042
 3315TIP3    H136056   2.460   5.165   6.553  2.5605 -1.7204 -2.4968
 3315TIP3    H236057   2.555   5.193   6.668  0.2882  0.8549 -1.1309
 3316TIP3   OH236058   3.661   5.635   0.411  0.0920 -0.3090 -0.2965
 3316TIP3    H136059   3.697   5.703   0.353 -0.7518  0.4886  0.0877
 3316TIP3    H236060   3.652   5.558   0.356  1.5497 -0.2803 -0.6233
 3317TIP3   OH236061   6.601   0.640   1.595  0.1392 -0.4230  0.3970
 3317TIP3    H136062   6.583   0.700   1.667  0.5937 -0.5174  0.5970
 3317TIP3    H236063   6.521   0.640   1.543 -0.8697 -1.6733  1.8401
 3318TIP3   OH236064   3.887   3.495   6.836 -0.1002  0.4695  0.1333
 3318TIP3    H136065   3.885   3.586   6.806  0.0398  0.6991  0.7972
 3318TIP3    H236066   3.974   3.485   6.875  0.4200 -0.3637 -1.1808
 3319TIP3   OH236067   6.009   0.087   1.190  0.5215 -0.3501 -0.1428
 3319TIP3    H136068   6.036   0.167   1.235 -3.5372  0.9750  0.3535
 3319TIP3    H236069   6.067   0.081   1.114  1.9994  2.1462  0.6840
 3320TIP3   OH236070   7.306   2.806   7.460  0.1404 -0.0671  0.1556
 3320TIP3    H136071   7.250   2.845   7.393  0.6520 -0.0169 -0.2431
 3320TIP3    H236072   7.328   2.879   7.518 -2.7456 -0.6129  2.1652
 3321TIP3   OH236073   1.683   5.240   7.808 -0.2443  1.2163  0.8751
 3321TIP3    H136074   1.765   5.272   7.771  1.0114 -0.9093  1.6067
 3321TIP3    H236075   1.623   5.235   7.734  1.0355  0.6044 -0.1563
 3322TIP3   OH236076   4.020   1.390   1.887 -0.3330  0.3159 -0.0024
 3322TIP3    H136077   3.966   1.370   1.963  1.0097  0.4840  1.0159
 3322TIP3    H236078   4.024   1.486   1.885  1.7931  0.3196  1.3371
 3323TIP3   OH236079   7.912   6.636   5.799 -0.0029 -0.0020 -0.6288
 3323TIP3    H136080   7.954   6.596   5.722  0.8070 -1.1165  0.3600
 3323TIP3    H236081   7.819   6.617   5.788  0.1330 -0.3443 -1.2231
 3324TIP3   OH236082   3.295   3.098   1.070  0.0333 -0.0543  0.1818
 3324TIP3    H136083   3.369   3.097   1.009  1.2087  1.0676  1.5254
 3324TIP3    H236084   3.233   3.036   1.033  1.7321 -1.1957 -0.8871
 3325TIP3   OH236085   2.709   1.154   5.744  0.0572  0.2824  0.2711
 3325TIP3    H136086   2.760   1.201   5.678  0.8105 -1.1773 -0.2369
 3325TIP3    H236087   2.618   1.180   5.726  0.1171 -0.7783 -2.0054
 3326TIP3   OH236088   1.624   4.595   0.003  0.1459  0.1379  0.3547
 3326TIP3    H136089   1.606   4.676  -0.044 -1.4798  0.2798  1.1580
 3326TIP3    H236090   1.712   4.570  -0.024  0.1619  1.4749 -0.8998
 3327TIP3   OH236091   7.809   7.404   1.570  0.0645  0.4366  0.3334
 3327TIP3    H136092   7.867   7.349   1.517  1.4966  0.1751  2.0920
 3327TIP3    H236093   7.802   7.486   1.521  0.3374 -0.2269 -0.8456
 3328TIP3   OH236094   5.387   3.016   5.836  0.3969 -0.2471 -0.6049
 3328TIP3    H136095   5.296   3.000   5.860  0.6447 -1.1128 -0.2044
 3328TIP3    H236096   5.431   3.037   5.919  0.3027  1.6089 -0.9691
 3329TIP3   OH236097   7.031   1.453   6.851 -0.6113  0.1609 -0.2872
 3329TIP3    H136098   7.051   1.524   6.912 -1.0670 -0.7774  1.0097
 3329TIP3    H236099   6.939   1.432   6.868  0.2137 -2.6361  1.5055
 3330TIP3   OH236100   0.837   3.118   6.601  0.0102 -0.2113 -0.8787
 3330TIP3    H136101   0.815   3.044   6.657  0.9856 -0.2452 -0.5257
 3330TIP3    H236102   0.914   3.157   6.641  0.7970 -0.2890 -2.2502
 3331TIP3   OH236103   4.482   3.772   5.824  0.1303 -0.1590  0.1711
 3331TIP3    H136104   4.571   3.802   5.837  1.0873 -2.8763  0.4633
 3331TIP3    H236105   4.428   3.839   5.866  2.0432  1.1607  0.6518
 3332TIP3   OH236106   6.944   7.396   1.332 -0.2385  0.3938  0.1128
 3332TIP3    H136107   6.850   7.409   1.343 -0.0132  0.8242  1.8014
 3332TIP3    H236108   6.955   7.301   1.334 -0.6241  0.3455 -0.0041
 3333TIP3   OH236109   4.024   1.198   6.818  0.0952 -0.2992 -0.3497
 3333TIP3    H136110   3.986   1.210   6.731  0.7587  2.3202 -0.3787
 3333TIP3    H236111   4.093   1.133   6.806 -0.6641 -0.9217 -1.4895
 3334TIP3   OH236112   5.009   7.042   7.114 -0.2682  0.1456 -0.0586
 3334TIP3    H136113   5.020   7.069   7.023 -0.3953  0.3040 -0.0259
 3334TIP3    H236114   5.037   7.118   7.166 -2.0946  0.7996  0.0287
 3335TIP3   OH236115   6.611   6.224   1.445 -0.4547  0.2412 -0.2909
 3335TIP3    H136116   6.628   6.147   1.499 -0.8575 -0.3654 -1.0188
 3335TIP3    H236117   6.517   6.238   1.452 -0.3104  1.0220  0.2873
 3336TIP3   OH236118   5.305   7.984   2.422  0.5874  0.1610 -0.0781
 3336TIP3    H136119   5.310   7.978   2.326  0.1923  0.1695 -0.1019
 3336TIP3    H236120   5.274   7.898   2.449 -0.4271  0.5165 -0.0511
 3337TIP3   OH236121   1.093   3.089   1.470  0.5027 -0.3675 -0.1207
 3337TIP3    H136122   1.165   3.135   1.426  0.0052  0.4782 -0.0887
 3337TIP3    H236123   1.079   3.011   1.417  0.8545 -0.0865 -0.6468
 3338TIP3   OH236124   5.856   2.035   7.005 -0.2989 -0.5639  0.4288
 3338TIP3    H136125   5.766   2.066   6.997 -1.0045 -2.5959 -0.0861
 3338TIP3    H236126   5.909   2.113   6.989 -1.8934  1.2347  3.0421
 3339TIP3   OH236127   7.372   8.049   5.278  0.4668 -0.1034  0.1383
 3339TIP3    H136128   7.307   8.052   5.208  1.8203  0.2341 -1.1393
 3339TIP3    H236129   7.337   7.984   5.339 -1.8583  1.2417  0.3385
 3340TIP3   OH236130   7.861   5.526   1.690  0.2387  0.2330  0.5078
 3340TIP3    H136131   7.925   5.589   1.723 -2.1719  2.4914  1.2056
 3340TIP3    H236132   7.841   5.555   1.601 -1.0367  0.6284  0.9000
 3341TIP3   OH236133   6.106   2.276   1.912  0.0054 -0.5984 -0.5690
 3341TIP3    H136134   6.021   2.241   1.885  0.8320 -2.0617 -1.4184
 3341TIP3    H236135   6.133   2.220   1.986  0.3610 -0.3371 -0.4968
 3342TIP3   OH236136   7.065   4.896   1.134  0.1210 -0.6079 -0.1019
 3342TIP3    H136137   7.015   4.945   1.069 -0.6176  0.3821  1.1870
 3342TIP3    H236138   7.149   4.878   1.090 -1.2907 -2.3324 -2.3093
 3343TIP3   OH236139   4.436   5.145   7.431  0.3104  0.4879 -0.2039
 3343TIP3    H136140   4.481   5.222   7.466 -0.5003 -0.6221  3.7795
 3343TIP3    H236141   4.475   5.072   7.478 -0.6999 -1.2821 -2.0006
 3344TIP3   OH236142   3.334   5.749   6.932 -0.2763 -0.0045  0.2574
 3344TIP3    H136143   3.330   5.844   6.916 -0.6964 -0.2243 -1.0869
 3344TIP3    H236144   3.423   5.724   6.906  0.2960  0.2198  1.9210
 3345TIP3   OH236145   3.447   5.212   1.402 -0.4751  0.5717 -0.3608
 3345TIP3    H136146   3.518   5.161   1.365 -0.9784  0.1934 -0.8254
 3345TIP3    H236147   3.369   5.158   1.389 -0.5906  0.1249  1.8384
 3346TIP3   OH236148   3.809   7.667   7.191 -0.2001 -0.0240 -0.0650
 3346TIP3    H136149   3.860   7.709   7.121 -0.0798  1.1201  0.6932
 3346TIP3    H236150   3.863   7.593   7.217 -1.0011 -1.5032 -2.3009
 3347TIP3   OH236151   4.510   5.850   1.573  0.4029  0.0313 -0.5761
 3347TIP3    H136152   4.533   5.871   1.663 -2.3948 -0.5631  0.3899
 3347TIP3    H236153   4.507   5.935   1.528  0.9794  0.4197  0.1099
 3348TIP3   OH236154   7.732   6.148   7.516  0.2496 -0.5850 -0.0454
 3348TIP3    H136155   7.732   6.186   7.428  2.0617 -2.0026 -0.7335
 3348TIP3    H236156   7.644   6.111   7.526 -0.3707  0.6458 -0.7550
 3349TIP3   OH236157   1.395   6.959   0.186  0.1013 -0.0364 -0.3350
 3349TIP3    H136158   1.468   7.020   0.175 -0.4134  0.7532  0.5674
 3349TIP3    H236159   1.438   6.877   0.212  0.7238  0.1685 -0.6746
 3350TIP3   OH236160   3.862   0.183   5.647  0.0961 -0.1409  0.6626
 3350TIP3    H136161   3.783   0.134   5.669  0.3238  0.3994  3.0154
 3350TIP3    H236162   3.841   0.228   5.566 -1.6512 -0.7972  0.7120
 3351TIP3   OH236163   0.490   2.003   0.545  0.2864 -0.0553  0.3901
 3351TIP3    H136164   0.481   2.089   0.503  2.2720  0.3046  0.5692
 3351TIP3    H236165   0.463   1.940   0.479  0.2364  0.6558 -0.2754
 3352TIP3   OH236166   7.826   4.982   7.622 -0.6350 -0.8965 -0.0120
 3352TIP3    H136167   7.826   4.915   7.554 -2.3788 -1.3526  0.3880
 3352TIP3    H236168   7.905   5.033   7.606  0.5082 -2.7561 -0.6120
 3353TIP3   OH236169   6.962   4.115   1.861 -0.7239 -0.1558 -0.1672
 3353TIP3    H136170   6.950   4.144   1.951  0.1065  0.5869 -0.2753
 3353TIP3    H236171   7.019   4.182   1.822 -0.6336 -0.7517 -1.0868
 3354TIP3   OH236172   2.447   7.298   1.377 -0.1290 -0.0454  0.5463
 3354TIP3    H136173   2.484   7.219   1.338  0.5338  0.8216 -0.6793
 3354TIP3    H236174   2.358   7.273   1.404 -0.1433 -1.0445 -0.3639
 3355TIP3   OH236175   5.761   6.148   7.418  0.2674 -0.3259 -0.2117
 3355TIP3    H136176   5.837   6.141   7.361 -0.9452 -0.4754 -1.8975
 3355TIP3    H236177   5.728   6.058   7.425  1.3523 -0.6308  2.2084
 3356TIP3   OH236178   2.927   7.352   1.448 -0.3794 -0.2902 -0.1676
 3356TIP3    H136179   2.869   7.417   1.408 -2.5245 -0.8783  1.8113
 3356TIP3    H236180   2.993   7.404   1.495 -2.0518  0.5519  1.3676
 3357TIP3   OH236181   2.478   3.375   1.552  0.1368 -0.2278 -0.3618
 3357TIP3    H136182   2.424   3.453   1.568 -1.1403 -0.8049 -1.6880
 3357TIP3    H236183   2.431   3.326   1.486  2.0381 -1.0585 -1.1769
 3358TIP3   OH236184   1.148   4.584   6.608  0.6218 -0.1979 -0.2931
 3358TIP3    H136185   1.130   4.494   6.634 -2.8914  0.6164  0.6323
 3358TIP3    H236186   1.098   4.596   6.527  0.4601  1.0616 -0.0359
 3359TIP3   OH236187   3.806   3.404   7.574 -0.3940  0.2291 -0.2373
 3359TIP3    H136188   3.762   3.329   7.534 -1.8839  0.3527  1.0502
 3359TIP3    H236189   3.798   3.474   7.509 -0.7281 -0.1943 -0.6614
 3360TIP3   OH236190   2.160   7.769   5.924  0.1556 -0.0911 -0.1130
 3360TIP3    H136191   2.212   7.835   5.878  0.1974  1.1412  1.5932
 3360TIP3    H236192   2.072   7.806   5.928  0.3767  0.3547  1.6606
 3361TIP3   OH236193   2.771   5.637   1.201 -0.3268 -0.2889  0.1758
 3361TIP3    H136194   2.685   5.596   1.204 -0.1640 -0.5861  1.3113
 3361TIP3    H236195   2.832   5.568   1.227  0.4755 -0.5636 -2.2407
 3362TIP3   OH236196   6.463   2.351   0.081  0.1117  0.1478 -0.2624
 3362TIP3    H136197   6.461   2.393  -0.004 -0.8983  0.0503 -0.3014
 3362TIP3    H236198   6.390   2.389   0.129  0.5994  0.1223  0.5278
 3363TIP3   OH236199   6.969   1.008   1.334 -0.9139 -0.5319 -0.0439
 3363TIP3    H136200   6.933   0.923   1.311  1.0314 -1.7327  1.0473
 3363TIP3    H236201   6.901   1.050   1.388 -0.8964 -2.5563  1.6712
 3364TIP3   OH236202   4.789   2.888   6.415 -0.2221  0.3189 -0.0178
 3364TIP3    H136203   4.761   2.965   6.464  2.1190  1.7972 -0.8189
 3364TIP3    H236204   4.743   2.895   6.332  0.7258  1.4792 -0.4805
 3365TIP3   OH236205   5.002   3.578   5.978  0.1242 -0.3283 -0.4231
 3365TIP3    H136206   5.072   3.567   5.913  0.0847 -2.3887 -0.2024
 3365TIP3    H236207   4.972   3.668   5.966  2.4156  0.4531 -0.9047
 3366TIP3   OH236208   7.899   2.044   6.167  0.7461 -0.1855  0.3542
 3366TIP3    H136209   7.967   2.092   6.214  1.3715 -0.5144 -0.1941
 3366TIP3    H236210   7.872   2.103   6.096 -0.5270  0.4991  1.3765
 3367TIP3   OH236211   6.813   0.330   0.775  0.1423  0.1981  0.3460
 3367TIP3    H136212   6.834   0.260   0.714  0.5924 -0.2981  1.0642
 3367TIP3    H236213   6.758   0.289   0.842  1.4549  0.2178  1.4637
 3368TIP3   OH236214   1.101   6.060   0.604 -0.0629  0.3282 -0.7552
 3368TIP3    H136215   1.142   5.974   0.602 -0.9999 -0.1501 -0.2209
 3368TIP3    H236216   1.157   6.115   0.550  0.2938 -0.7336 -1.4947
 3369TIP3   OH236217   5.729   5.768   1.016 -1.1059 -0.1913 -0.1317
 3369TIP3    H136218   5.708   5.677   1.035 -0.2500 -0.4239 -0.2862
 3369TIP3    H236219   5.824   5.774   1.028 -0.9964  0.4087 -1.2009
 3370TIP3   OH236220   1.832   8.049   6.691 -0.1204  0.3193  0.5930
 3370TIP3    H136221   1.772   8.003   6.750  0.0907 -0.9045 -0.1089
 3370TIP3    H236222   1.785   8.129   6.667 -2.8404 -1.8424 -2.1320
 3371TIP3   OH236223   5.862   3.231   0.471  0.3321 -0.0606  0.5158
 3371TIP3    H136224   5.816   3.307   0.435  0.8419  0.1115  0.2250
 3371TIP3    H236225   5.794   3.183   0.520 -0.1916  0.1075 -0.0321
 3372TIP3   OH236226   1.024   4.330   7.186 -0.1812 -0.3750 -0.0617
 3372TIP3    H136227   1.006   4.421   7.207  0.4442  0.1849 -1.7772
 3372TIP3    H236228   0.965   4.310   7.113  1.0839 -0.7063 -1.0211
 3373TIP3   OH236229   7.644   7.895   5.656 -0.4191 -0.5025 -0.1735
 3373TIP3    H136230   7.728   7.932   5.682  0.1137  0.2471 -2.6384
 3373TIP3    H236231   7.664   7.804   5.632 -0.6128 -0.7519  0.5910
 3374TIP3   OH236232   2.611   3.125   7.779  0.5584  0.6809 -0.2369
 3374TIP3    H136233   2.677   3.073   7.825  0.4396 -1.1405 -1.9676
 3374TIP3    H236234   2.530   3.110   7.828  0.9621  1.0561  0.5594
 3375TIP3   OH236235   3.775   0.649   5.635  0.4943  0.0401 -0.3854
 3375TIP3    H136236   3.858   0.688   5.661  0.1164  0.0328  0.9024
 3375TIP3    H236237   3.709   0.706   5.673 -0.0836 -0.6929 -0.2621
 3376TIP3   OH236238   5.377   2.918   6.512 -0.3776 -0.5328  0.0743
 3376TIP3    H136239   5.382   2.949   6.421 -0.2108 -1.7248 -0.3468
 3376TIP3    H236240   5.292   2.875   6.518 -0.5366 -0.1526  0.5883
 3377TIP3   OH236241   5.233   0.027   7.870 -0.0533  0.3964 -0.0062
 3377TIP3    H136242   5.236   0.123   7.869 -2.5239  0.5159 -0.2316
 3377TIP3    H236243   5.216   0.005   7.962 -1.9572  0.3351 -0.3397
 3378TIP3   OH236244   0.455   2.768   0.391  0.2518 -0.6252  0.1939
 3378TIP3    H136245   0.482   2.859   0.403 -1.7173  0.6667 -3.5578
 3378TIP3    H236246   0.422   2.741   0.477  0.3957  2.4012  1.3167
 3379TIP3   OH236247   2.438   1.506   7.257 -0.4594  0.4450  0.2296
 3379TIP3    H136248   2.357   1.466   7.289 -0.7118  0.8261  0.0764
 3379TIP3    H236249   2.452   1.468   7.171 -0.6342  0.5921  0.1350
 3380TIP3   OH236250   2.546   0.909   0.356 -0.4993  0.5179  0.3771
 3380TIP3    H136251   2.632   0.948   0.342  1.4673 -3.5187 -0.5467
 3380TIP3    H236252   2.542   0.893   0.450 -1.2837  2.6649  0.7439
 3381TIP3   OH236253   4.947   3.850   2.177 -0.4028  0.0295  0.2472
 3381TIP3    H136254   5.042   3.849   2.164 -0.1834  1.8682  1.3784
 3381TIP3    H236255   4.911   3.815   2.096  1.2804 -4.0520  1.0043
 3382TIP3   OH236256   0.760   7.880   0.683  0.0876  0.4525  0.0381
 3382TIP3    H136257   0.841   7.932   0.692  0.2198  0.0833  1.1029
 3382TIP3    H236258   0.761   7.821   0.758 -0.6455 -0.3054 -0.5285
 3383TIP3   OH236259   2.833   6.371   1.163 -0.0334  0.1013 -0.4375
 3383TIP3    H136260   2.914   6.331   1.130  1.0613  1.5782  0.3614
 3383TIP3    H236261   2.802   6.310   1.230  1.6584  0.5543  0.8272
 3384TIP3   OH236262   5.850   1.111   5.744 -0.1828  0.7015  0.5394
 3384TIP3    H136263   5.907   1.187   5.757  1.4266 -0.4676  0.5325
 3384TIP3    H236264   5.829   1.081   5.832  2.4950 -1.1843  0.6671
 3385TIP3   OH236265   7.740   0.889   7.291  0.0149 -0.1662 -0.4162
 3385TIP3    H136266   7.718   0.796   7.298 -0.7084  0.1417  3.4645
 3385TIP3    H236267   7.663   0.935   7.322  1.0249  1.6463 -0.4527
 3386TIP3   OH236268   3.413   2.290   6.466  0.3884  0.0593 -0.1222
 3386TIP3    H136269   3.376   2.377   6.484 -0.0344  0.0520 -0.9057
 3386TIP3    H236270   3.455   2.299   6.381  0.8931 -0.3409  0.0829
 3387TIP3   OH236271   4.122   7.519   6.461  0.3108  0.0774  0.1307
 3387TIP3    H136272   4.044   7.541   6.410 -0.0376 -1.3915 -0.0298
 3387TIP3    H236273   4.121   7.579   6.535 -0.2024  1.0008 -0.6059
 3388TIP3   OH236274   1.334   6.857   6.456 -0.3322 -0.5071 -0.0986
 3388TIP3    H136275   1.264   6.829   6.516  0.3277 -0.0522  0.9206
 3388TIP3    H236276   1.294   6.854   6.369 -1.4183 -0.8834  0.3927
 3389TIP3   OH236277   7.698   7.355   5.666  0.0203 -0.0786  0.0612
 3389TIP3    H136278   7.696   7.343   5.761  2.4695 -3.6954 -0.1549
 3389TIP3    H236279   7.686   7.267   5.631 -2.9086  1.3685 -3.1904
 3390TIP3   OH236280   7.669   1.531   5.212  0.6109  0.3328 -0.3582
 3390TIP3    H136281   7.632   1.445   5.229 -1.1165  0.7179 -1.8654
 3390TIP3    H236282   7.687   1.568   5.298  1.2217 -1.4562  0.3048
 3391TIP3   OH236283   0.889   6.251   1.417  0.0775  0.5341  0.6564
 3391TIP3    H136284   0.873   6.342   1.441 -0.6711  0.7476 -0.5538
 3391TIP3    H236285   0.851   6.201   1.490 -1.7675  1.1588  0.1788
 3392TIP3   OH236286   0.679   3.837   1.713 -0.3631  0.1674 -0.4355
 3392TIP3    H136287   0.709   3.747   1.698  1.4096  0.5986  0.1767
 3392TIP3    H236288   0.725   3.864   1.792  0.8190  2.2823 -1.7400
 3393TIP3   OH236289   7.741   6.940   7.796  0.1825  0.3877  0.1502
 3393TIP3    H136290   7.720   6.984   7.713  0.1599 -1.4267 -0.8503
 3393TIP3    H236291   7.806   6.997   7.837 -0.0579  1.5054 -0.9493
 3394TIP3   OH236292   6.972   6.996   6.903 -0.0457  0.0467 -0.6352
 3394TIP3    H136293   7.050   6.949   6.934 -0.9551 -1.5614 -0.6803
 3394TIP3    H236294   6.899   6.940   6.929 -1.3662  2.4232  1.0878
 3395TIP3   OH236295   7.708   1.312   1.468 -0.4370  0.0027 -0.0680
 3395TIP3    H136296   7.778   1.277   1.413  0.1799  1.4745 -0.2424
 3395TIP3    H236297   7.702   1.250   1.541 -0.3558 -1.2329 -1.0800
 3396TIP3   OH236298   4.420   0.752   6.907  0.0568  0.0203 -0.0312
 3396TIP3    H136299   4.471   0.714   6.978  0.6410 -0.2619 -0.5887
 3396TIP3    H236300   4.467   0.833   6.884 -1.4201  1.3600  1.4443
 3397TIP3   OH236301   0.256   3.432   1.469  0.2843  0.0242  0.1046
 3397TIP3    H136302   0.261   3.431   1.565 -0.6076 -0.7770  0.1584
 3397TIP3    H236303   0.162   3.441   1.451  0.5927  2.2484 -0.7139
 3398TIP3   OH236304   7.130   5.565   7.336  0.1277 -0.7417 -0.0873
 3398TIP3    H136305   7.061   5.558   7.270  0.9469  0.3620 -1.1096
 3398TIP3    H236306   7.200   5.613   7.292  0.7268 -0.0288  1.5721
 3399TIP3   OH236307   5.313   5.061   1.430  0.3839  0.1414 -0.1052
 3399TIP3    H136308   5.218   5.053   1.418  0.6958 -0.6917 -2.4233
 3399TIP3    H236309   5.328   5.030   1.519 -1.5249  0.4564  0.3710
 3400TIP3   OH236310   2.414   5.503   2.097  0.0353  0.0312  0.4125
 3400TIP3    H136311   2.391   5.541   2.182 -0.6899  1.4775 -0.3936
 3400TIP3    H236312   2.501   5.536   2.078  0.2531 -0.4034  0.6582
 3401TIP3   OH236313   6.798   0.111   6.292 -0.3543 -0.1116  0.3306
 3401TIP3    H136314   6.716   0.160   6.293  0.2417  1.0315 -1.5698
 3401TIP3    H236315   6.847   0.145   6.366 -1.2558 -0.2415  1.0132
 3402TIP3   OH236316   7.090   1.290   5.861  0.1288 -0.1705 -0.3984
 3402TIP3    H136317   7.043   1.374   5.861 -0.2487 -0.3332  1.6762
 3402TIP3    H236318   7.182   1.314   5.857 -0.0030  0.3235 -0.5248
 3403TIP3   OH236319   1.884   7.314   7.941  0.4904 -0.4537  0.6110
 3403TIP3    H136320   1.831   7.326   8.021 -0.7251  2.9811 -0.5226
 3403TIP3    H236321   1.820   7.296   7.873  1.3864 -1.9365  0.1352
 3404TIP3   OH236322   1.893   3.187   0.486 -0.1780 -0.1271  0.3290
 3404TIP3    H136323   1.902   3.274   0.525  2.3591 -0.5460  0.8256
 3404TIP3    H236324   1.932   3.197   0.399 -3.3939  0.1237 -1.2477
 3405TIP3   OH236325   2.181   0.301   6.203 -0.2433  0.0233  0.7046
 3405TIP3    H136326   2.235   0.315   6.281  1.0049  0.0755 -0.1512
 3405TIP3    H236327   2.147   0.387   6.182  1.2625  0.4563 -0.1039
 3406TIP3   OH236328   3.696   7.012   5.971  0.1379  0.2350  0.1773
 3406TIP3    H136329   3.661   7.087   5.923 -0.6830 -0.1337  0.1763
 3406TIP3    H236330   3.692   6.939   5.909 -1.3671 -0.3532  0.9036
 3407TIP3   OH236331   7.153   2.804   0.003 -0.2404  0.2829  0.3183
 3407TIP3    H136332   7.229   2.767   0.048 -0.0183  0.4943  0.1209
 3407TIP3    H236333   7.154   2.897   0.026 -0.3810  0.3060  0.2351
 3408TIP3   OH236334   3.625   0.716   6.390  0.4859  0.3180  0.4274
 3408TIP3    H136335   3.637   0.734   6.297  0.0815 -0.7523  0.1487
 3408TIP3    H236336   3.678   0.782   6.435  3.2055 -1.0443 -0.6094
 3409TIP3   OH236337   4.012   5.419   6.510  0.7792 -0.4926  0.4159
 3409TIP3    H136338   4.087   5.386   6.559  0.3254  2.3363  3.2864
 3409TIP3    H236339   3.936   5.383   6.556  0.3099 -0.8892 -0.6333
 3410TIP3   OH236340   7.731   0.137   0.808  0.0269 -0.7132  0.2233
 3410TIP3    H136341   7.696   0.192   0.878  0.4866  0.0338 -0.1282
 3410TIP3    H236342   7.727   0.048   0.844 -1.8555 -0.6312  0.3578
 3411TIP3   OH236343   0.483   6.565   7.511  0.3163  0.3131 -0.0333
 3411TIP3    H136344   0.470   6.659   7.522  2.3366  0.6384 -0.0110
 3411TIP3    H236345   0.536   6.539   7.587  0.7139 -0.6132 -0.5995
 3412TIP3   OH236346   1.283   4.245   1.857 -0.2123  0.1424 -0.7282
 3412TIP3    H136347   1.270   4.335   1.884 -0.0711  0.5646 -2.0265
 3412TIP3    H236348   1.220   4.195   1.909 -0.0491  0.9316  0.2546
 3413TIP3   OH236349   3.870   0.494   1.684 -0.2000  0.2164  0.0996
 3413TIP3    H136350   3.880   0.400   1.673 -0.5893  0.3410 -1.5973
 3413TIP3    H236351   3.959   0.528   1.679  0.0066 -0.1014  1.3689
 3414TIP3   OH236352   1.016   4.618   6.373  0.6012  0.1481 -0.4884
 3414TIP3    H136353   0.962   4.618   6.294 -0.4071  1.8359  0.1442
 3414TIP3    H236354   0.963   4.664   6.438  0.6492 -2.6629  1.7454
 3415TIP3   OH236355   4.236   2.213   2.048  0.1785 -0.4849  0.1045
 3415TIP3    H136356   4.269   2.136   2.003 -0.7307 -1.1898  0.6075
 3415TIP3    H236357   4.231   2.280   1.980  1.3661 -0.7319 -0.2512
 3416TIP3   OH236358   2.243   5.720   0.853 -0.1430  0.3886  0.3514
 3416TIP3    H136359   2.233   5.678   0.938  1.2202  0.5263  0.5902
 3416TIP3    H236360   2.233   5.814   0.871 -0.1127  0.3985  0.3168
 3417TIP3   OH236361   5.165   6.896   0.369 -0.0407 -0.0668  0.0455
 3417TIP3    H136362   5.085   6.948   0.380 -0.6853 -1.0182 -0.0552
 3417TIP3    H236363   5.193   6.916   0.279 -0.4068 -0.0637 -0.0714
 3418TIP3   OH236364   1.470   4.831   6.656 -0.1277 -0.3615 -0.2545
 3418TIP3    H136365   1.379   4.860   6.644 -0.3536  0.1250  2.1761
 3418TIP3    H236366   1.463   4.757   6.717  1.1326 -0.0708  0.2673
 3419TIP3   OH236367   1.514   4.960   7.062 -0.2938 -0.3904 -0.3324
 3419TIP3    H136368   1.438   4.966   7.005 -0.4071 -0.4621 -0.1874
 3419TIP3    H236369   1.484   4.993   7.147 -0.5332 -1.6311  0.0898
 3420TIP3   OH236370   4.709   2.952   7.058  0.4079  0.3396  0.0266
 3420TIP3    H136371   4.640   2.977   7.120  0.9537  0.7788  0.4724
 3420TIP3    H236372   4.735   3.035   7.017 -0.7917 -0.0842 -1.7205
 3421TIP3   OH236373   0.454   7.820   6.239  0.9189  0.2375  0.6767
 3421TIP3    H136374   0.549   7.823   6.247  1.2599  0.2817 -2.2354
 3421TIP3    H236375   0.438   7.780   6.154 -1.6805  0.6748  0.8625
 3422TIP3   OH236376   4.646   6.553   0.595 -0.2105  0.8297  0.7432
 3422TIP3    H136377   4.720   6.509   0.638 -0.9909 -0.9926  0.3268
 3422TIP3    H236378   4.662   6.541   0.502 -0.7847  0.8717  0.6401
 3423TIP3   OH236379   4.445   1.804   2.191  0.4081 -0.3649  0.0346
 3423TIP3    H136380   4.387   1.792   2.266 -0.8430 -0.3165 -0.8888
 3423TIP3    H236381   4.461   1.715   2.159 -0.6671 -0.2820 -0.7924
 3424TIP3   OH236382   0.646   6.974   0.608 -0.6724  0.2475 -0.1606
 3424TIP3    H136383   0.569   6.994   0.661 -1.0497  0.1518 -0.6691
 3424TIP3    H236384   0.705   7.047   0.624 -1.2873  0.8463 -0.5650
 3425TIP3   OH236385   6.076   3.863   6.300 -0.4173  0.0496  0.5367
 3425TIP3    H136386   6.010   3.922   6.262 -0.3385 -0.2600 -0.1067
 3425TIP3    H236387   6.123   3.916   6.363  0.5190  1.0751 -0.9666
 3426TIP3   OH236388   6.285   1.444   6.109 -0.1359 -0.1067  0.0189
 3426TIP3    H136389   6.305   1.519   6.165  1.3622  1.5056 -2.5050
 3426TIP3    H236390   6.211   1.473   6.055 -1.3346 -1.5023  0.8283
 3427TIP3   OH236391   1.787   7.503   5.881 -0.6810  0.2544 -0.0771
 3427TIP3    H136392   1.745   7.587   5.895  0.1959  0.6279  0.3401
 3427TIP3    H236393   1.863   7.523   5.827 -0.3905 -0.2548  0.1424
 3428TIP3   OH236394   6.523   1.522   6.393  0.4774  0.6767 -0.2356
 3428TIP3    H136395   6.588   1.492   6.329 -0.1098 -2.6568  0.5342
 3428TIP3    H236396   6.439   1.510   6.349  0.2089  1.7611 -0.0475
 3429TIP3   OH236397   2.373   7.221   6.913  0.3373 -0.6934 -0.4424
 3429TIP3    H136398   2.425   7.289   6.956  0.7119 -0.5794 -1.0574
 3429TIP3    H236399   2.433   7.181   6.851 -0.3189 -0.5525 -1.1799
 3430TIP3   OH236400   3.931   6.212   0.400  0.0570 -0.0754 -0.1295
 3430TIP3    H136401   4.005   6.166   0.439  0.4447  0.4312 -0.2720
 3430TIP3    H236402   3.921   6.171   0.313  0.0831 -0.2313 -0.0603
 3431TIP3   OH236403   5.545   1.930   0.775  0.1612  0.1220  0.0764
 3431TIP3    H136404   5.499   1.848   0.757  1.2023 -0.7672  1.2295
 3431TIP3    H236405   5.478   1.998   0.767 -1.2834 -1.0834  1.2931
 3432TIP3   OH236406   3.836   0.759   1.450  0.6057 -0.3502  0.5113
 3432TIP3    H136407   3.781   0.771   1.527  0.1402 -1.6917  0.4327
 3432TIP3    H236408   3.915   0.810   1.467  0.5045 -0.6121  1.8723
 3433TIP3   OH236409   7.622   4.268   1.690 -0.4194  0.1903 -0.1805
 3433TIP3    H136410   7.531   4.290   1.673 -0.6537 -0.4207  0.2448
 3433TIP3    H236411   7.662   4.351   1.717 -0.4757  0.7852 -1.8012
 3434TIP3   OH236412   2.576   1.263   1.712  0.1435  0.0301 -0.4034
 3434TIP3    H136413   2.555   1.191   1.772 -0.4178  0.7799  0.3367
 3434TIP3    H236414   2.635   1.224   1.647  1.5928 -0.5776  1.1980
 3435TIP3   OH236415   6.490   7.907   7.756 -0.4522 -0.0934 -0.2936
 3435TIP3    H136416   6.571   7.856   7.758 -0.7099 -0.5303 -0.7331
 3435TIP3    H236417   6.456   7.903   7.845 -0.0138  0.0643 -0.1160
 3436TIP3   OH236418   1.572   2.877   7.441 -0.2535  0.1971  0.5230
 3436TIP3    H136419   1.561   2.972   7.443 -0.1726  0.1980  0.9988
 3436TIP3    H236420   1.493   2.842   7.482 -0.4200  0.0438  0.0805
 3437TIP3   OH236421   2.353   3.196   1.362  0.3218  0.5620 -0.2328
 3437TIP3    H136422   2.400   3.226   1.284  1.6991  2.6138  1.2519
 3437TIP3    H236423   2.327   3.107   1.342  1.1736  0.8023 -2.7823
 3438TIP3   OH236424   5.353   6.541   1.116 -0.4121  0.9623 -1.1419
 3438TIP3    H136425   5.423   6.551   1.181  0.8596 -0.4330 -2.2317
 3438TIP3    H236426   5.322   6.630   1.101 -1.4021  1.2572  2.0057
 3439TIP3   OH236427   0.003   0.492   7.204  0.4402 -0.0431  0.5948
 3439TIP3    H136428  -0.058   0.437   7.155  0.8791 -0.5756  0.6449
 3439TIP3    H236429  -0.012   0.580   7.170  0.3599 -0.3233 -0.1035
 3440TIP3   OH236430   7.522   2.320   0.425  0.3909 -0.7084 -0.4778
 3440TIP3    H136431   7.568   2.253   0.375 -0.8427 -0.5448 -1.9081
 3440TIP3    H236432   7.547   2.403   0.384 -0.5825 -0.5647 -0.8192
 3441TIP3   OH236433   1.998   2.243   7.590  0.3140  0.4450  0.3818
 3441TIP3    H136434   1.908   2.230   7.620  0.4954  0.3209  0.8712
 3441TIP3    H236435   2.026   2.324   7.631  0.3048  0.6776 -0.0643
 3442TIP3   OH236436   3.184   2.198   6.956 -0.3491  0.1517  0.1570
 3442TIP3    H136437   3.210   2.281   6.917  1.0787 -0.0513  0.6057
 3442TIP3    H236438   3.142   2.150   6.885  1.5592  0.0659 -0.9809
 3443TIP3   OH236439   4.310   1.671   1.716 -0.2196  0.2775  0.3759
 3443TIP3    H136440   4.267   1.699   1.797 -1.3341  0.4390 -0.2580
 3443TIP3    H236441   4.341   1.583   1.735  0.9877  0.9185  1.5173
 3444TIP3   OH236442   1.295   0.776   7.402 -0.0991 -0.0611 -0.0687
 3444TIP3    H136443   1.232   0.812   7.464 -0.4948 -1.2733  0.2622
 3444TIP3    H236444   1.279   0.825   7.321  0.2968  1.4023  0.7095
 3445TIP3   OH236445   3.234   3.476   7.847  0.2401 -0.2840 -0.0928
 3445TIP3    H136446   3.156   3.428   7.819 -0.4494  1.7342 -1.8969
 3445TIP3    H236447   3.306   3.436   7.800 -0.1107 -0.4492 -0.4909
 3446TIP3   OH236448   5.454   4.915   5.940  0.0857 -0.5006  0.0075
 3446TIP3    H136449   5.439   4.874   5.854 -0.4594  0.0276 -0.1497
 3446TIP3    H236450   5.504   4.849   5.988 -0.0822 -1.0334 -0.5225
 3447TIP3   OH236451   6.283   0.636   1.115 -0.6695  0.5558  0.1363
 3447TIP3    H136452   6.359   0.592   1.077  0.2920  0.0553  2.4817
 3447TIP3    H236453   6.268   0.712   1.058  1.8528  0.9018 -0.1749
 3448TIP3   OH236454   1.052   7.331   5.487 -0.5285  0.5798 -0.2803
 3448TIP3    H136455   0.991   7.301   5.419 -1.1579  0.2388  0.4118
 3448TIP3    H236456   1.084   7.415   5.455  0.1271 -0.1298 -1.5643
 3449TIP3   OH236457   1.118   4.752   0.112 -0.0488 -0.0832  0.1014
 3449TIP3    H136458   1.120   4.682   0.176 -0.3614 -0.8787 -0.7401
 3449TIP3    H236459   1.033   4.795   0.124  0.7331  1.1407  1.6186
 3450TIP3   OH236460   0.639   1.079   0.079 -0.1101 -0.3163 -0.0603
 3450TIP3    H136461   0.689   1.025   0.017 -0.6204 -0.3033 -0.4920
 3450TIP3    H236462   0.662   1.169   0.055  1.1521 -0.3232  1.0012
 3451TIP3   OH236463   4.842   0.523   5.301  0.2108  0.1865 -0.1205
 3451TIP3    H136464   4.827   0.527   5.207 -0.5062  0.8577  0.0179
 3451TIP3    H236465   4.926   0.477   5.309  1.3259  1.8868 -1.1931
 3452TIP3   OH236466   3.892   2.907   6.899 -0.2286  0.1683 -0.0511
 3452TIP3    H136467   3.809   2.948   6.923 -0.3668 -0.0187 -0.2019
 3452TIP3    H236468   3.939   2.897   6.981 -0.3508  0.2853  0.0337
 3453TIP3   OH236469   1.197   2.927   0.314  0.3528  0.5379  0.6310
 3453TIP3    H136470   1.281   2.912   0.358  0.0506 -2.0075  0.5337
 3453TIP3    H236471   1.220   2.940   0.222  0.7085  1.1907  0.8092
 3454TIP3   OH236472   6.796   6.319   7.776 -0.2706 -0.3944  0.2250
 3454TIP3    H136473   6.745   6.382   7.826  0.0832  1.2533 -1.3980
 3454TIP3    H236474   6.746   6.237   7.782 -2.1984  0.7204  0.1331
 3455TIP3   OH236475   7.988   1.779   2.013 -0.1611 -0.2501 -0.7080
 3455TIP3    H136476   7.919   1.735   1.962  2.1527 -2.4408 -2.2128
 3455TIP3    H236477   7.975   1.872   1.996 -2.9956 -0.5227 -0.5146
 3456TIP3   OH236478   2.257   3.849   2.210 -0.0671  0.3857 -0.8047
 3456TIP3    H136479   2.250   3.797   2.290  0.8927 -1.1548 -1.6835
 3456TIP3    H236480   2.341   3.895   2.218  0.5445 -0.5965 -1.3658
 3457TIP3   OH236481   2.720   1.276   2.075  0.0812 -0.0829 -0.3850
 3457TIP3    H136482   2.642   1.323   2.104  0.2713  0.8351 -1.3330
 3457TIP3    H236483   2.691   1.185   2.068 -0.6818  0.1109  0.0502
 3458TIP3   OH236484   1.056   5.148   7.855 -0.4945  0.4949 -0.3244
 3458TIP3    H136485   1.102   5.087   7.797 -0.7145 -0.8332  0.8486
 3458TIP3    H236486   1.123   5.213   7.879 -0.2284  0.6846 -1.5100
 3459TIP3   OH236487   4.364   1.972   1.955  0.2429  0.0580  0.1109
 3459TIP3    H136488   4.413   1.928   2.024  0.9812 -0.1044 -0.5070
 3459TIP3    H236489   4.311   1.902   1.915  2.4340 -0.6401 -1.7759
 3460TIP3   OH236490   7.356   3.579   6.753 -0.3954  0.1747  0.0903
 3460TIP3    H136491   7.325   3.498   6.793 -2.1877  1.3278  1.2281
 3460TIP3    H236492   7.308   3.585   6.671  0.0628 -0.1154 -0.2017
 3461TIP3   OH236493   3.473   0.610   5.566  0.2947  0.1462 -0.2789
 3461TIP3    H136494   3.522   0.613   5.648 -0.1244  0.3946 -0.0354
 3461TIP3    H236495   3.416   0.687   5.569 -0.6244 -0.5168 -0.2324
 3462TIP3   OH236496   3.070   1.858   7.003 -0.2261  0.5711  0.1754
 3462TIP3    H136497   2.998   1.901   6.958  0.3734  1.4057 -0.0191
 3462TIP3    H236498   3.033   1.832   7.088 -0.5894  1.5847  0.3505
 3463TIP3   OH236499   4.820   2.691   5.862  0.0161  0.4596  1.5044
 3463TIP3    H136500   4.851   2.633   5.931 -1.0387 -1.1563  0.6891
 3463TIP3    H236501   4.839   2.644   5.780 -0.7373  1.3236  0.8012
 3464TIP3   OH236502   1.269   2.020   7.787  0.3666  0.1946  0.4953
 3464TIP3    H136503   1.301   2.040   7.875  0.7055 -0.2166  0.4709
 3464TIP3    H236504   1.183   1.982   7.800  0.0265  0.9731  0.5882
 3465TIP3   OH236505   8.012   2.793   0.059  0.3459 -0.1891 -0.2356
 3465TIP3    H136506   8.070   2.782  -0.016  0.4098 -1.6052 -0.0037
 3465TIP3    H236507   8.069   2.824   0.129  0.6855 -0.8744 -0.2075
 3466TIP3   OH236508   3.207   0.081   1.046  0.4957 -0.2580 -0.1828
 3466TIP3    H136509   3.235   0.155   1.098 -0.4223  0.3056 -0.4626
 3466TIP3    H236510   3.172   0.018   1.109  1.5767 -0.6132  0.0856
 3467TIP3   OH236511   4.083   4.257   1.186  0.1252 -0.3701  0.5593
 3467TIP3    H136512   4.151   4.238   1.250  0.0695  1.4567  1.2442
 3467TIP3    H236513   4.105   4.204   1.110  3.4257  1.4607  0.0388
 3468TIP3   OH236514   6.431   0.049   1.024 -0.3492  0.3866 -0.4526
 3468TIP3    H136515   6.414  -0.026   1.080 -1.5429  0.1791 -1.0455
 3468TIP3    H236516   6.414   0.125   1.080  1.7463  0.2874  0.4189
 3469TIP3   OH236517   3.922   3.892   7.731  0.3092 -0.3835  0.1999
 3469TIP3    H136518   3.895   3.929   7.647  2.7233  0.8595 -0.1090
 3469TIP3    H236519   3.883   3.950   7.797 -1.5694 -1.3460  0.0079
 3470TIP3   OH236520   6.360   6.226   0.953 -0.2512  0.0728 -0.5715
 3470TIP3    H136521   6.419   6.206   1.025 -0.8101 -0.5925 -0.2934
 3470TIP3    H236522   6.274   6.197   0.983 -0.5805  0.2641 -1.3023
 3471TIP3   OH236523   6.389   0.838   7.777 -0.1674 -0.4397  0.7537
 3471TIP3    H136524   6.474   0.882   7.790  0.2851 -1.5871  1.8997
 3471TIP3    H236525   6.371   0.847   7.683  0.3095  1.4304  0.8068
 3472TIP3   OH236526   7.280   6.563   1.430 -0.1406 -0.5758  0.0017
 3472TIP3    H136527   7.188   6.537   1.437 -0.2477 -0.2811 -0.3146
 3472TIP3    H236528   7.295   6.619   1.506 -0.8777  1.3346 -1.1929
 3473TIP3   OH236529   3.799   3.221   6.199  0.3446  0.2715  0.6765
 3473TIP3    H136530   3.866   3.223   6.130  0.5296  1.1529  0.8747
 3473TIP3    H236531   3.831   3.156   6.262  0.0939 -0.6640 -0.1277
 3474TIP3   OH236532   7.009   2.799   0.326  0.1308  0.2539 -0.1810
 3474TIP3    H136533   7.022   2.705   0.343  1.0984  0.5392  0.7836
 3474TIP3    H236534   7.097   2.831   0.306 -0.2386  0.9153 -0.7768
 3475TIP3   OH236535   1.524   2.881   6.045 -0.2022 -0.2210  0.2452
 3475TIP3    H136536   1.557   2.862   6.133 -0.9210 -0.8145  0.3948
 3475TIP3    H236537   1.489   2.970   6.051 -1.4160 -0.7261  0.9195
 3476TIP3   OH236538   5.545   1.125   0.418  0.4360 -0.0263 -0.0546
 3476TIP3    H136539   5.547   1.221   0.417 -1.8600  0.0604 -1.4177
 3476TIP3    H236540   5.510   1.103   0.504  0.2613  0.3701 -0.0204
 3477TIP3   OH236541   4.675   7.649   1.670  0.3351 -0.0897  0.3193
 3477TIP3    H136542   4.693   7.559   1.697 -1.2368 -0.8070 -0.8543
 3477TIP3    H236543   4.648   7.693   1.751 -0.1798 -1.0434  0.6807
 3478TIP3   OH236544   1.029   6.688   1.622  0.6653 -0.0159  0.3085
 3478TIP3    H136545   0.963   6.695   1.554  0.8397 -1.2593 -0.0141
 3478TIP3    H236546   1.047   6.779   1.648  0.7021  0.4990 -1.3804
 3479TIP3   OH236547   2.287   7.829   1.584  0.1211 -0.0847 -0.6970
 3479TIP3    H136548   2.236   7.797   1.659  0.0557  0.4420 -0.5150
 3479TIP3    H236549   2.287   7.756   1.522  1.6277 -1.1924  0.5256
 3480TIP3   OH236550   0.927   2.003   0.735  0.0199 -0.0062 -0.4919
 3480TIP3    H136551   0.865   2.068   0.703 -0.2980  1.1037  2.1353
 3480TIP3    H236552   0.880   1.956   0.803  0.7540 -1.9982 -1.2891
 3481TIP3   OH236553   1.990   2.054   6.859  0.0831 -0.7509  0.6271
 3481TIP3    H136554   2.069   2.001   6.847  0.2798  0.1512 -3.0157
 3481TIP3    H236555   1.919   1.999   6.826 -0.2161 -0.0950  0.1665
 3482TIP3   OH236556   3.205   4.412   1.069 -0.1268 -0.4586  0.3245
 3482TIP3    H136557   3.123   4.447   1.104 -0.4903 -1.0045  0.0409
 3482TIP3    H236558   3.192   4.317   1.069  0.1867 -0.5069 -0.5045
 3483TIP3   OH236559   2.023   0.098   6.485  0.1589 -0.6328  0.8129
 3483TIP3    H136560   2.050   0.189   6.472  1.3358 -0.8863  1.3344
 3483TIP3    H236561   2.032   0.084   6.579 -2.4019 -0.5901  1.1249
 3484TIP3   OH236562   5.097   5.385   1.582  0.0409 -0.2000 -0.2515
 3484TIP3    H136563   5.057   5.318   1.527 -3.0419  0.9486  0.3838
 3484TIP3    H236564   5.111   5.342   1.666 -2.9448  0.0683  0.5057
 3485TIP3   OH236565   0.654   0.342   7.212 -0.0418  1.1587  0.0595
 3485TIP3    H136566   0.606   0.418   7.246  0.5087  1.4555  0.1799
 3485TIP3    H236567   0.683   0.295   7.290 -1.9395 -0.2176  0.0328
 3486TIP3   OH236568   2.151   3.306   6.465  0.8868  0.4251 -0.0888
 3486TIP3    H136569   2.181   3.397   6.469  0.1117  0.7127 -0.4699
 3486TIP3    H236570   2.193   3.263   6.539  1.2528  1.0999  0.1025
 3487TIP3   OH236571   8.048   2.553   1.375 -0.4664 -0.4993  0.3911
 3487TIP3    H136572   8.095   2.628   1.412 -0.8225 -0.3946  0.6342
 3487TIP3    H236573   7.977   2.536   1.437 -1.9590  0.5907 -0.9043
 3488TIP3   OH236574   2.602   8.023   7.202  0.4036  0.1902 -0.4371
 3488TIP3    H136575   2.551   8.104   7.190  1.5801  1.1696  0.7736
 3488TIP3    H236576   2.568   7.986   7.284  1.1754  0.5047  0.0322
 3489TIP3   OH236577   0.899   5.394   0.986  0.4008 -0.4856 -0.0989
 3489TIP3    H136578   0.850   5.401   1.068 -1.8214 -1.2046 -1.2688
 3489TIP3    H236579   0.937   5.481   0.973  0.5003 -0.2711  1.5088
 3490TIP3   OH236580   1.020   5.910   0.936 -0.0844 -0.1489 -0.0201
 3490TIP3    H136581   1.096   5.951   0.893  0.4287 -0.0938  0.9098
 3490TIP3    H236582   0.993   5.974   1.002 -0.6039 -0.4104  0.0227
 3491TIP3   OH236583   3.050   4.635   0.316 -0.5919  0.1716  0.3246
 3491TIP3    H136584   2.986   4.661   0.249  1.2148 -0.0024 -1.5847
 3491TIP3    H236585   3.101   4.714   0.332  1.1722 -0.5990 -1.1302
 3492TIP3   OH236586   1.691   1.574   1.225  0.2677 -0.1301 -0.5261
 3492TIP3    H136587   1.758   1.511   1.197  2.4725  2.0283 -0.5028
 3492TIP3    H236588   1.675   1.628   1.148 -1.9752 -0.9358 -0.6944
 3493TIP3   OH236589   2.272   6.474   7.077 -0.5436 -0.1780 -0.0489
 3493TIP3    H136590   2.322   6.393   7.062 -2.0263 -0.8009 -2.1419
 3493TIP3    H236591   2.298   6.531   7.005  0.4907  1.2685  1.4189
 3494TIP3   OH236592   5.602   2.319   0.971  0.2740 -0.4239 -0.5319
 3494TIP3    H136593   5.525   2.353   0.926 -0.4389 -0.7123  0.4375
 3494TIP3    H236594   5.568   2.248   1.026  1.4881 -1.6859 -1.3494
 3495TIP3   OH236595   1.871   6.165   1.958 -0.1986 -0.6903 -0.0099
 3495TIP3    H136596   1.946   6.178   1.900 -0.2065 -0.5784  0.0059
 3495TIP3    H236597   1.870   6.242   2.014 -0.2266 -0.7707  0.1006
 3496TIP3   OH236598   2.993   4.706   1.843 -0.4867  0.3315 -0.1688
 3496TIP3    H136599   3.080   4.747   1.839 -0.1086 -0.4940 -0.5020
 3496TIP3    H236600   2.949   4.753   1.914  0.1239  0.9588 -0.1889
 3497TIP3   OH236601   7.549   4.082   5.992  0.0746  0.3854 -0.2296
 3497TIP3    H136602   7.555   4.132   5.910  0.7545  1.2105  0.3018
 3497TIP3    H236603   7.498   4.005   5.969  0.5226  0.4406 -1.5201
 3498TIP3   OH236604   1.988   6.022   1.622 -0.1346  0.5947  0.4511
 3498TIP3    H136605   1.991   6.056   1.532  0.1085 -1.3074 -0.3149
 3498TIP3    H236606   2.011   6.096   1.677 -1.1948  2.0595 -0.9809
 3499TIP3   OH236607   4.129   3.369   0.364  0.1185  0.0504 -0.0080
 3499TIP3    H136608   4.082   3.433   0.416 -1.3525 -2.1449  1.5203
 3499TIP3    H236609   4.081   3.365   0.281 -0.4465  0.1228  0.3126
 3500TIP3   OH236610   2.323   4.585   5.593 -0.1800  0.0432  0.1288
 3500TIP3    H136611   2.266   4.610   5.665 -0.5426  1.5268 -0.6286
 3500TIP3    H236612   2.310   4.490   5.583 -1.0232  0.0284  1.2161
 3501TIP3   OH236613   6.437   1.073   0.076  0.1506  0.1353 -0.2150
 3501TIP3    H136614   6.513   1.022   0.048 -0.9408 -0.4608 -2.3208
 3501TIP3    H236615   6.454   1.161   0.044  0.4134  0.2320  0.1974
 3502TIP3   OH236616   4.332   6.600   1.001 -0.2812  0.0320 -0.1909
 3502TIP3    H136617   4.290   6.586   1.086 -0.6206 -0.0176 -0.3693
 3502TIP3    H236618   4.338   6.696   0.994  2.1680  0.0627  1.0911
 3503TIP3   OH236619   7.611   6.792   1.532 -0.1394  0.1208 -0.0991
 3503TIP3    H136620   7.614   6.771   1.626 -0.4080 -0.0148 -0.1187
 3503TIP3    H236621   7.603   6.707   1.489 -2.8291  0.2787 -0.0953
 3504TIP3   OH236622   5.914   6.057   0.525  0.2551  0.2974 -0.3350
 3504TIP3    H136623   5.909   6.061   0.620 -0.2187 -1.3369 -0.2576
 3504TIP3    H236624   6.008   6.062   0.505  0.2822  2.4048  0.0590
 3505TIP3   OH236625   5.176   5.407   7.785  0.4643 -0.2645  0.1793
 3505TIP3    H136626   5.085   5.416   7.757  0.6989  0.8078 -0.2829
 3505TIP3    H236627   5.171   5.370   7.873 -0.3697 -1.5687 -0.3917
 3506TIP3   OH236628   5.320   7.654   0.606  0.3489  0.1054  0.7555
 3506TIP3    H136629   5.298   7.641   0.513  1.3815 -0.8667  0.6266
 3506TIP3    H236630   5.281   7.739   0.628  0.0771  0.3471 -0.5617
 3507TIP3   OH236631   6.746   1.674   7.560 -1.0610  0.3419 -0.4631
 3507TIP3    H136632   6.767   1.710   7.474  0.6459  0.8768  0.1498
 3507TIP3    H236633   6.810   1.604   7.573  0.0999  1.6583  1.2314
 3508TIP3   OH236634   4.052   6.095   1.858 -0.4792  0.0390  0.5715
 3508TIP3    H136635   3.993   6.020   1.857 -1.4393  0.7744 -0.8630
 3508TIP3    H236636   3.995   6.171   1.856  0.4720  0.7705 -1.2207
 3509TIP3   OH236637   6.224   5.453   2.300 -0.2651  0.1049 -0.6597
 3509TIP3    H136638   6.266   5.504   2.230  1.5858 -1.2717 -0.6195
 3509TIP3    H236639   6.296   5.424   2.355 -1.5016 -0.6341  0.6380
 3510TIP3   OH236640   5.546   5.694   6.111 -0.5402  0.3419 -0.4765
 3510TIP3    H136641   5.637   5.663   6.112 -0.1402  1.4421 -0.7461
 3510TIP3    H236642   5.498   5.628   6.061  0.0217 -0.4703  0.0350
 3511TIP3   OH236643   2.766   3.197   1.293 -0.0592 -0.1892  0.1320
 3511TIP3    H136644   2.742   3.220   1.382 -0.3155  0.0593 -0.0004
 3511TIP3    H236645   2.739   3.272   1.240 -0.0590 -0.4042 -0.1781
 3512TIP3   OH236646   2.056   4.516   5.762  0.4324  0.3164 -0.0890
 3512TIP3    H136647   2.081   4.600   5.802  2.0021 -1.1983  2.4474
 3512TIP3    H236648   1.989   4.481   5.821  1.8133 -1.4055  0.5211
 3513TIP3   OH236649   6.147   1.466   2.035 -0.6485 -0.2792  0.0033
 3513TIP3    H136650   6.215   1.422   2.085 -0.2412  1.1522  0.7572
 3513TIP3    H236651   6.071   1.408   2.042 -0.6930 -0.0375  2.5234
 3514TIP3   OH236652   4.786   7.668   0.080 -0.0020 -0.0307  0.1092
 3514TIP3    H136653   4.880   7.652   0.083 -0.3245 -2.2152  0.2494
 3514TIP3    H236654   4.747   7.582   0.067 -1.9272  1.0293 -1.8329
 3515TIP3   OH236655   2.399   2.177   7.750 -1.2168 -0.5308  0.3998
 3515TIP3    H136656   2.316   2.132   7.734 -1.7906  0.2338  1.1093
 3515TIP3    H236657   2.403   2.243   7.681 -0.8310 -1.0540 -0.0815
 3516TIP3   OH236658   7.903   0.379   7.673 -0.0106 -0.1216 -0.2683
 3516TIP3    H136659   7.954   0.420   7.604  0.1555  2.1148  1.0961
 3516TIP3    H236660   7.969   0.351   7.737 -0.3198  0.3771  0.2760
 3517TIP3   OH236661   4.101   0.655   7.594 -0.6285  0.0853  0.0422
 3517TIP3    H136662   4.174   0.688   7.541  1.2281  0.3464  2.5615
 3517TIP3    H236663   4.034   0.722   7.587  0.5074  1.2491 -0.0818
 3518TIP3   OH236664   7.632   3.656   7.754  0.1070  0.2739 -0.6401
 3518TIP3    H136665   7.712   3.702   7.730  1.6674 -1.5571  0.7129
 3518TIP3    H236666   7.561   3.716   7.730  1.8902  2.2429 -1.2640
 3519TIP3   OH236667   6.237   0.503   0.799  0.1432  0.3383 -0.0836
 3519TIP3    H136668   6.234   0.598   0.808  0.3882  0.4682 -1.2372
 3519TIP3    H236669   6.328   0.480   0.821  1.2923  0.8641 -3.6323
 3520TIP3   OH236670   0.851   0.106   7.644  0.1409 -0.0886 -0.3440
 3520TIP3    H136671   0.835   0.011   7.647  2.1644 -0.4500  0.7057
 3520TIP3    H236672   0.931   0.118   7.694  1.0922  1.9349 -2.1963
 3521TIP3   OH236673   0.177   3.666   5.595 -0.0016  0.2835  0.0536
 3521TIP3    H136674   0.229   3.739   5.561 -1.2989  0.5519 -1.4839
 3521TIP3    H236675   0.119   3.706   5.659 -1.0491  0.7497 -1.1360
 3522TIP3   OH236676   2.700   2.750   7.132 -0.0810 -0.0478 -0.1187
 3522TIP3    H136677   2.705   2.783   7.043 -2.3358 -2.5492 -1.3322
 3522TIP3    H236678   2.712   2.655   7.122  1.7681 -0.2018  2.5604
 3523TIP3   OH236679   7.871   1.065   7.906  0.0341  0.4687 -0.5580
 3523TIP3    H136680   7.948   1.120   7.892 -0.4132  0.8631 -1.5284
 3523TIP3    H236681   7.907   0.982   7.937  0.7333  1.1919  0.6374
 3524TIP3   OH236682   1.069   2.039   7.533  0.2298 -0.1347 -0.1570
 3524TIP3    H136683   0.995   2.095   7.511 -0.5145 -1.6789 -1.8060
 3524TIP3    H236684   1.030   1.967   7.584  0.7958 -0.3462 -0.0164
 3525TIP3   OH236685   3.040   5.053   0.056 -0.6104 -0.0605 -0.1512
 3525TIP3    H136686   3.108   4.986   0.045  0.3541  0.3781  2.3451
 3525TIP3    H236687   3.007   5.039   0.145 -0.7504  2.4137  0.2437
 3526TIP3   OH236688   0.441   0.870   6.209 -0.1656  0.4813 -0.5860
 3526TIP3    H136689   0.525   0.825   6.209 -0.6871 -0.5215  0.4826
 3526TIP3    H236690   0.444   0.926   6.131  2.1257  1.7006  0.3062
 3527TIP3   OH236691   3.293   0.447   0.210  0.2841 -0.0068  0.3051
 3527TIP3    H136692   3.313   0.360   0.245  1.2598  0.2023  0.2993
 3527TIP3    H236693   3.228   0.483   0.270  2.3104  0.5592  2.2835
 3528TIP3   OH236694   5.067   3.519   7.810  0.1087 -1.0079  0.2672
 3528TIP3    H136695   5.108   3.585   7.865  1.5191 -1.5880 -0.0447
 3528TIP3    H236696   5.097   3.541   7.721  1.6714 -2.7892  0.3050
 3529TIP3   OH236697   3.513   7.925   6.630  0.4171  0.1409  0.5211
 3529TIP3    H136698   3.420   7.948   6.624 -0.1749 -2.2943 -1.2836
 3529TIP3    H236699   3.547   7.982   6.699 -2.4618  0.9282  1.4632
 3530TIP3   OH236700   6.649   5.295   0.184 -0.1727 -0.3584 -0.0683
 3530TIP3    H136701   6.604   5.309   0.267 -0.1436  0.4167 -0.1734
 3530TIP3    H236702   6.684   5.206   0.190 -2.0527 -1.1460 -0.1584
 3531TIP3   OH236703   1.214   2.313   7.706 -0.5479  0.0143 -0.1180
 3531TIP3    H136704   1.120   2.314   7.688 -0.7660  0.6012  1.0009
 3531TIP3    H236705   1.237   2.221   7.712 -0.7665 -0.1784 -1.7653
 3532TIP3   OH236706   7.019   6.510   6.904 -0.4474 -0.0370 -0.0773
 3532TIP3    H136707   6.968   6.429   6.909 -0.1777 -0.1543  3.3316
 3532TIP3    H236708   6.982   6.566   6.973  1.6479  1.3211  0.0426
 3533TIP3   OH236709   7.223   7.779   7.516 -0.2110 -0.5960  0.1995
 3533TIP3    H136710   7.287   7.709   7.502 -0.9256 -1.3867  0.7697
 3533TIP3    H236711   7.270   7.859   7.493  1.4530 -1.0079  1.8678
 3534TIP3   OH236712   2.083   6.933   5.503 -0.0854  0.6427  0.0047
 3534TIP3    H136713   2.089   7.023   5.535 -0.8459  1.4304 -1.9250
 3534TIP3    H236714   2.117   6.938   5.413 -0.7657 -0.8598 -0.3516
 3535TIP3   OH236715   7.316   1.322   0.304 -0.0209  0.1166 -0.0802
 3535TIP3    H136716   7.262   1.337   0.227 -0.4319 -0.9490 -0.0211
 3535TIP3    H236717   7.396   1.372   0.288  0.0629 -0.4049 -1.3812
 3536TIP3   OH236718   0.303   3.436   0.162 -0.9843 -0.2409 -0.7239
 3536TIP3    H136719   0.270   3.471   0.079 -3.8242  1.2856  0.9135
 3536TIP3    H236720   0.387   3.481   0.175 -0.3076 -0.7683 -2.8521
 3537TIP3   OH236721   4.673   2.540   0.417  0.0109  0.2694 -0.5908
 3537TIP3    H136722   4.728   2.591   0.477 -2.2398  2.5003 -0.2536
 3537TIP3    H236723   4.637   2.470   0.471 -0.7487  1.3196  0.3135
 3538TIP3   OH236724   7.760   4.521   0.251 -0.3731 -0.3956 -0.1514
 3538TIP3    H136725   7.852   4.529   0.223 -0.6326 -0.8495 -1.1734
 3538TIP3    H236726   7.746   4.427   0.258 -0.9432 -0.3461 -0.6173
 3539TIP3   OH236727   2.867   4.083   0.093 -0.1093 -0.3167  0.1617
 3539TIP3    H136728   2.851   4.086  -0.002  0.5775  2.9603  0.0450
 3539TIP3    H236729   2.784   4.054   0.130 -0.3419 -1.8455 -1.3995
 3540TIP3   OH236730   3.987   4.767   1.144  0.1409 -0.0773  0.2392
 3540TIP3    H136731   4.049   4.814   1.199  1.7930 -1.2407 -0.5420
 3540TIP3    H236732   4.021   4.777   1.055 -2.2812  1.5012 -0.6272
 3541TIP3   OH236733   4.029   7.313   6.250  0.2378 -0.6355 -0.4994
 3541TIP3    H136734   4.090   7.371   6.296  0.2743  0.0822 -1.4239
 3541TIP3    H236735   4.007   7.246   6.315 -0.7294  1.0481  0.9966
 3542TIP3   OH236736   0.632   1.121   1.194 -0.6633 -0.5651 -0.0455
 3542TIP3    H136737   0.590   1.035   1.195 -0.8481 -0.4704  0.6434
 3542TIP3    H236738   0.712   1.109   1.245 -0.0654 -0.6269 -0.9645
 3543TIP3   OH236739   1.549   2.141   6.983  0.3015  0.0338 -0.1232
 3543TIP3    H136740   1.577   2.057   6.947 -0.8261  1.1215 -3.9542
 3543TIP3    H236741   1.614   2.204   6.951  0.4401  0.8785  1.6613
 3544TIP3   OH236742   1.806   2.310   6.136  0.3404 -0.0023 -0.1945
 3544TIP3    H136743   1.786   2.397   6.170  1.5908  0.8114 -1.4510
 3544TIP3    H236744   1.738   2.254   6.173 -0.8103  1.6014  0.2248
 3545TIP3   OH236745   2.437   3.846   7.227 -0.1079 -0.5373 -0.3440
 3545TIP3    H136746   2.519   3.806   7.197  0.3198 -0.2786  0.4339
 3545TIP3    H236747   2.396   3.879   7.147  0.9035 -0.0273 -0.6825
 3546TIP3   OH236748   7.186   5.270   2.505  0.7552 -1.1434 -0.4593
 3546TIP3    H136749   7.255   5.265   2.438 -0.5150 -1.4442 -1.7766
 3546TIP3    H236750   7.106   5.243   2.461 -0.1295 -1.4236  1.2134
 3547TIP3   OH236751   0.069   0.768   1.547 -0.5552  0.2193 -0.5250
 3547TIP3    H136752  -0.013   0.763   1.498  0.0827 -0.2121 -1.5817
 3547TIP3    H236753   0.062   0.699   1.613 -0.5076 -0.6900 -1.4593
 3548TIP3   OH236754   2.955   5.031   7.329  0.0356 -0.0062  0.1485
 3548TIP3    H136755   3.024   4.990   7.277  0.3002 -0.0387  0.5272
 3548TIP3    H236756   3.000   5.082   7.395 -0.3003 -0.1822  0.5202
 3549TIP3   OH236757   0.389   5.560   1.318  0.4812 -0.2008 -0.2915
 3549TIP3    H136758   0.470   5.526   1.282  0.5265  1.2413 -1.6523
 3549TIP3    H236759   0.398   5.655   1.313 -1.4792  0.0045 -0.9852
 3550TIP3   OH236760   3.246   0.664   5.764 -0.5170 -0.0916  0.5579
 3550TIP3    H136761   3.224   0.663   5.857 -0.5170  0.5671  0.5702
 3550TIP3    H236762   3.285   0.750   5.749 -1.2042  0.1059 -0.2092
 3551TIP3   OH236763   6.339   4.601   7.188  0.1129  0.0088 -0.4110
 3551TIP3    H136764   6.273   4.546   7.231  0.2917  0.0081 -0.1369
 3551TIP3    H236765   6.358   4.670   7.251 -0.4810  0.6824 -0.9494
 3552TIP3   OH236766   0.223   7.653   0.044  0.0466  0.4348 -0.0736
 3552TIP3    H136767   0.175   7.612  -0.028 -1.6584  0.8901  0.7539
 3552TIP3    H236768   0.314   7.652   0.015 -0.6745  1.4263 -2.6338
 3553TIP3   OH236769   8.021   4.780   6.097  0.0015 -0.0404 -0.0418
 3553TIP3    H136770   7.998   4.715   6.030 -1.1421 -0.1241  0.4034
 3553TIP3    H236771   7.957   4.765   6.167  0.6884  0.5613  0.7351
 3554TIP3   OH236772   6.549   5.698   6.670 -0.9342  0.1291 -0.2868
 3554TIP3    H136773   6.568   5.667   6.582  0.2931 -0.3873  0.1436
 3554TIP3    H236774   6.466   5.746   6.661 -0.0382  1.4663 -2.0294
 3555TIP3   OH236775   2.040   4.557   0.921 -0.1068  0.5716  0.3684
 3555TIP3    H136776   1.948   4.566   0.945  0.0269  0.1556  1.0591
 3555TIP3    H236777   2.066   4.472   0.957 -0.2860 -0.8309 -2.5001
 3556TIP3   OH236778   7.553   6.582   6.969  0.3508 -0.0091 -0.0554
 3556TIP3    H136779   7.458   6.571   6.968  0.2784  0.2556  1.4484
 3556TIP3    H236780   7.587   6.493   6.957 -0.0172  0.1588 -2.8451
 3557TIP3   OH236781   1.213   1.615   1.137  0.0893 -0.0519  0.2358
 3557TIP3    H136782   1.241   1.706   1.132 -0.6441  0.2275  1.0554
 3557TIP3    H236783   1.218   1.584   1.047  2.4387  0.1427  0.2289
 3558TIP3   OH236784   0.715   4.287   0.979 -0.6616  0.0825 -0.0869
 3558TIP3    H136785   0.646   4.229   1.011  1.2549 -2.1099  0.4214
 3558TIP3    H236786   0.755   4.239   0.906 -2.2233  3.1217 -3.2114
 3559TIP3   OH236787   0.996   4.270   6.345  0.1175  0.0906 -0.2988
 3559TIP3    H136788   0.907   4.295   6.368  0.2865 -0.2069  0.7345
 3559TIP3    H236789   0.992   4.245   6.252 -0.6508  1.0645 -0.5420
 3560TIP3   OH236790   0.609   0.183   0.123  0.4789 -0.0038  0.0049
 3560TIP3    H136791   0.542   0.228   0.175  0.4375 -1.2540  1.0567
 3560TIP3    H236792   0.648   0.253   0.070 -0.8453  0.9477  0.2311
 3561TIP3   OH236793   7.666   4.777   0.142 -0.3428  0.0933 -0.8499
 3561TIP3    H136794   7.693   4.803   0.054 -0.0449 -0.8593 -1.0437
 3561TIP3    H236795   7.726   4.706   0.166 -0.7888 -0.0419 -0.1036
 3562TIP3   OH236796   3.101   7.160   0.543  0.0957  0.1985  0.0541
 3562TIP3    H136797   3.058   7.094   0.598  0.5209 -0.4062 -0.3255
 3562TIP3    H236798   3.132   7.111   0.467  0.1182  0.9041 -0.3964
 3563TIP3   OH236799   2.494   2.059   0.920 -0.3514  0.0531 -0.2530
 3563TIP3    H136800   2.465   1.996   0.986 -0.8955  1.0044  0.4365
 3563TIP3    H236801   2.460   2.023   0.837 -1.8189  0.1065  0.2947
 3564TIP3   OH236802   5.992   6.464   1.574  0.3334 -0.2150 -0.0355
 3564TIP3    H136803   6.031   6.422   1.497  2.6988  1.2297  0.2642
 3564TIP3    H236804   6.004   6.400   1.644 -0.1071 -0.7870 -0.4747
 3565TIP3   OH236805   3.046   2.232   1.454 -0.3482 -0.3189 -0.0665
 3565TIP3    H136806   2.979   2.298   1.473  0.2432 -0.1523  1.6958
 3565TIP3    H236807   3.062   2.190   1.539  0.1401 -1.9287 -0.9140
 3566TIP3   OH236808   1.124   6.847   7.643  0.0017  0.0865  0.1987
 3566TIP3    H136809   1.105   6.904   7.569  0.6211 -0.1494 -0.1494
 3566TIP3    H236810   1.122   6.758   7.606 -0.0583 -0.0608  0.5444
 3567TIP3   OH236811   0.112   5.295   7.293  0.3911  0.5352  0.4800
 3567TIP3    H136812   0.024   5.312   7.327 -0.9227 -2.5477 -0.9361
 3567TIP3    H236813   0.118   5.348   7.214 -1.2546 -0.9502 -0.7284
 3568TIP3   OH236814   2.991   6.869   5.582 -0.2482  0.4334  0.2898
 3568TIP3    H136815   2.898   6.883   5.564  0.2235 -0.1402 -3.2764
 3568TIP3    H236816   3.028   6.957   5.591 -0.9018  0.7070  0.3458
 3569TIP3   OH236817   6.767   6.742   7.547  0.4781  0.1667  0.0230
 3569TIP3    H136818   6.832   6.762   7.614  0.1531  1.8315 -0.1108
 3569TIP3    H236819   6.745   6.827   7.509 -0.7234 -0.5306 -0.9116
 3570TIP3   OH236820   5.790   4.100   0.306  0.1226  0.3940 -0.5038
 3570TIP3    H136821   5.723   4.082   0.371 -0.2165  1.0170 -0.6780
 3570TIP3    H236822   5.850   4.025   0.313  0.2550  0.5910  0.7222
 3571TIP3   OH236823   0.063   3.154   7.370 -0.5904 -0.0328  0.0662
 3571TIP3    H136824  -0.031   3.154   7.355 -0.4829 -0.0293 -0.6469
 3571TIP3    H236825   0.088   3.062   7.365 -0.5146 -0.0083  0.0029
 3572TIP3   OH236826   4.196   3.110   7.141  0.5423  0.4884  0.1647
 3572TIP3    H136827   4.138   3.168   7.092  1.1063  1.4198  0.5556
 3572TIP3    H236828   4.146   3.087   7.220 -0.0933 -0.4445 -0.4894
 3573TIP3   OH236829   2.764   7.518   6.324 -0.7379  0.6391 -0.8221
 3573TIP3    H136830   2.692   7.553   6.376 -0.8889 -1.5583  0.5451
 3573TIP3    H236831   2.808   7.456   6.381  0.9780  0.3681 -2.3337
 3574TIP3   OH236832   1.520   5.558   7.904  0.6304  0.7540 -0.3320
 3574TIP3    H136833   1.470   5.616   7.847  1.0618  0.6912 -0.7849
 3574TIP3    H236834   1.573   5.616   7.957 -0.3279  0.8494  0.5603
 3575TIP3   OH236835   2.161   4.264   7.538 -0.4022 -0.5330 -0.2391
 3575TIP3    H136836   2.228   4.205   7.573 -0.6429 -0.1487  0.9224
 3575TIP3    H236837   2.161   4.247   7.444 -0.8135 -2.7546  0.0900
 3576TIP3   OH236838   5.751   4.370   1.556  0.3474  0.8614  0.5784
 3576TIP3    H136839   5.669   4.401   1.518  0.2533  1.7841  1.5089
 3576TIP3    H236840   5.739   4.379   1.650  1.4421  0.7919  0.7371
 3577TIP3   OH236841   2.893   4.178   7.770 -0.5783 -0.0090 -0.5600
 3577TIP3    H136842   2.980   4.215   7.789 -0.9837  1.5507 -1.6463
 3577TIP3    H236843   2.911   4.104   7.711  0.2034 -1.4745  1.3782
 3578TIP3   OH236844   1.492   7.804   1.789 -0.0763 -0.5123 -0.0486
 3578TIP3    H136845   1.518   7.803   1.697 -2.0529 -0.4906 -0.6583
 3578TIP3    H236846   1.411   7.753   1.792 -0.7300  0.5127  1.4383
 3579TIP3   OH236847   1.026   6.795   1.079  0.2092  0.4515  0.2336
 3579TIP3    H136848   1.002   6.886   1.094  0.0151  0.4996 -0.3612
 3579TIP3    H236849   1.107   6.799   1.028  1.1800  0.2872  1.6783
 3580TIP3   OH236850   5.792   4.667   0.598  0.5556 -0.6011  0.0295
 3580TIP3    H136851   5.750   4.638   0.517 -0.0434  1.0697 -0.2932
 3580TIP3    H236852   5.871   4.613   0.605 -0.0287 -1.6317 -1.0034
 3581TIP3   OH236853   3.808   0.014   7.364  0.1584  0.1111 -0.1678
 3581TIP3    H136854   3.898   0.034   7.390  1.0957  0.0707 -3.0686
 3581TIP3    H236855   3.815  -0.069   7.316 -1.4975 -0.0588 -0.1652
 3582TIP3   OH236856   7.689   0.754   7.675 -0.1993  0.4973  0.0569
 3582TIP3    H136857   7.754   0.815   7.640  0.9905 -0.9426 -0.3393
 3582TIP3    H236858   7.626   0.742   7.605 -0.0515  0.7430 -0.1180
 3583TIP3   OH236859   3.336   1.540   0.832  0.8173 -0.4042  0.4127
 3583TIP3    H136860   3.272   1.471   0.816  0.9881 -0.1532 -1.5978
 3583TIP3    H236861   3.420   1.495   0.835  0.9107 -0.3368 -0.7322
 3584TIP3   OH236862   7.214   4.155   1.420  0.2126 -0.0030 -0.2009
 3584TIP3    H136863   7.257   4.085   1.469 -2.2190  0.1222  2.3154
 3584TIP3    H236864   7.167   4.110   1.350 -0.2485 -0.7593  0.5862
 3585TIP3   OH236865   1.729   6.353   0.938  0.3421 -0.2738  0.2830
 3585TIP3    H136866   1.772   6.337   0.854 -0.4743 -1.4501  0.0784
 3585TIP3    H236867   1.688   6.439   0.927  1.4224  0.2391  0.0013
 3586TIP3   OH236868   1.868   6.741   2.243  0.1189 -0.2995  0.6640
 3586TIP3    H136869   1.894   6.706   2.157  1.7963 -1.8775  1.7469
 3586TIP3    H236870   1.935   6.805   2.264 -0.4169  0.2530  0.7204
 3587TIP3   OH236871   3.648   0.055   0.226 -0.4110  0.3602  0.0969
 3587TIP3    H136872   3.734   0.089   0.202  1.0877 -2.6187  0.6688
 3587TIP3    H236873   3.605   0.038   0.142  0.2483  0.3725 -0.2509
 3588TIP3   OH236874   2.525   1.117   7.511  0.1346  0.2225  0.0067
 3588TIP3    H136875   2.606   1.126   7.562  0.2332  0.9490 -0.2690
 3588TIP3    H236876   2.554   1.111   7.420 -0.1100  0.2446 -0.0735
 3589TIP3   OH236877   3.501   0.213   7.676 -0.6173 -0.2443 -0.4498
 3589TIP3    H136878   3.462   0.286   7.627 -2.7410 -1.4669 -0.7093
 3589TIP3    H236879   3.540   0.254   7.753  0.2327  1.3887 -1.6802
 3590TIP3   OH236880   4.312   0.163   6.777  0.3830 -0.5931 -0.3302
 3590TIP3    H136881   4.306   0.253   6.810  0.4051 -0.8340  0.3568
 3590TIP3    H236882   4.406   0.145   6.775  0.5059  0.0586 -2.3497
 3591TIP3   OH236883   3.761   2.961   1.142  0.4776 -0.5146  0.3954
 3591TIP3    H136884   3.722   2.882   1.178  1.2101 -0.7747  0.6387
 3591TIP3    H236885   3.791   2.935   1.054  0.9294 -0.5846  0.5644
 3592TIP3   OH236886   5.199   0.882   1.454 -0.0556  0.2170 -0.1960
 3592TIP3    H136887   5.119   0.843   1.490  0.0975  0.2974  0.2330
 3592TIP3    H236888   5.168   0.953   1.398 -0.2894  0.1855 -0.1086
 3593TIP3   OH236889   0.682   7.692   5.861  0.1052 -0.4343  0.0627
 3593TIP3    H136890   0.600   7.647   5.843 -1.1998  1.6446  0.5376
 3593TIP3    H236891   0.737   7.626   5.904 -2.4457 -1.0708  2.5959
 3594TIP3   OH236892   7.031   3.270   0.568  0.1183  0.1349  0.1495
 3594TIP3    H136893   7.017   3.262   0.662  0.8324 -1.2323  0.1602
 3594TIP3    H236894   7.024   3.180   0.535 -0.5865  0.6450 -1.1760
 3595TIP3   OH236895   1.888   3.988   6.849 -0.2901  0.0752  0.7572
 3595TIP3    H136896   1.924   4.076   6.860 -1.1380  0.5116  0.1973
 3595TIP3    H236897   1.950   3.944   6.792 -0.6606  0.8343 -0.2607
 3596TIP3   OH236898   2.230   2.931   6.735 -0.2847  0.1000  0.0479
 3596TIP3    H136899   2.183   2.922   6.818 -0.5648  0.1402 -0.1054
 3596TIP3    H236900   2.184   2.873   6.675  0.4648 -0.6199  0.1496
 3597TIP3   OH236901   5.647   4.792   6.387  0.0445  0.0862 -0.2458
 3597TIP3    H136902   5.616   4.822   6.473  1.7971 -1.1931  0.8984
 3597TIP3    H236903   5.626   4.699   6.385  1.9233 -0.3917 -0.2301
 3598TIP3   OH236904   6.154   6.004   6.980 -1.1087 -0.1381  0.1013
 3598TIP3    H136905   6.237   5.963   6.958 -0.0744  2.7058 -1.7954
 3598TIP3    H236906   6.088   5.945   6.944  0.1077 -1.7843  0.4784
 3599TIP3   OH236907   3.471   7.059   0.475  0.1542  0.2285  0.3050
 3599TIP3    H136908   3.385   7.027   0.504 -0.3146 -0.6671 -1.8975
 3599TIP3    H236909   3.533   7.012   0.532 -0.7410  2.2252  3.1733
 3600TIP3   OH236910   7.625   6.688   7.874  0.7057 -0.6792  0.0977
 3600TIP3    H136911   7.658   6.680   7.963  0.2977 -0.7589  0.2404
 3600TIP3    H236912   7.674   6.762   7.837 -0.1742  0.3071  0.8595
 3601TIP3   OH236913   5.940   6.147   2.633 -0.0905 -0.4468 -0.2810
 3601TIP3    H136914   5.950   6.159   2.539 -0.8476  0.3278 -0.2765
 3601TIP3    H236915   5.848   6.126   2.645 -0.2295  0.4623  0.3678
 3602TIP3   OH236916   6.382   2.266   2.194 -0.2250 -0.6428 -0.1836
 3602TIP3    H136917   6.476   2.281   2.204  0.1550 -0.6864 -2.9422
 3602TIP3    H236918   6.374   2.175   2.167 -1.1700 -0.8707  0.7592
 3603TIP3   OH236919   3.666   7.763   6.018 -0.5681 -0.0930  0.7717
 3603TIP3    H136920   3.667   7.709   6.097  0.2017 -1.8142 -0.3549
 3603TIP3    H236921   3.608   7.836   6.040  1.2382  0.6534  3.6294
 3604TIP3   OH236922   7.057   0.302   7.174 -0.1006 -0.6062 -0.8641
 3604TIP3    H136923   6.974   0.258   7.155 -0.0354 -1.1195  0.0133
 3604TIP3    H236924   7.109   0.238   7.222  0.4171  0.0568 -0.5086
 3605TIP3   OH236925   3.447   3.420   7.683 -0.1700 -0.3911 -0.4295
 3605TIP3    H136926   3.508   3.399   7.613  0.8784  0.3636  0.2349
 3605TIP3    H236927   3.454   3.515   7.694  0.3309 -0.5912  1.2535
 3606TIP3   OH236928   2.360   4.730   1.318  0.1349 -0.0237 -0.4850
 3606TIP3    H136929   2.441   4.703   1.361  0.0888  2.9220  1.7883
 3606TIP3    H236930   2.306   4.650   1.316  1.9619 -1.3633  0.6172
 3607TIP3   OH236931   7.978   1.114   5.889  0.2449  0.2521  0.2383
 3607TIP3    H136932   7.948   1.205   5.895  1.4317  0.6351  0.4793
 3607TIP3    H236933   7.905   1.063   5.925 -1.0246  0.9732 -1.2069
 3608TIP3   OH236934   0.641   5.039   7.202 -0.1844 -0.4833  0.0197
 3608TIP3    H136935   0.584   4.984   7.148  0.8083 -1.5533  0.0324
 3608TIP3    H236936   0.729   5.005   7.186  0.3918  0.7272  0.4961
 3609TIP3   OH236937   6.825   2.365   7.175 -0.1263 -0.5318 -0.1208
 3609TIP3    H136938   6.749   2.394   7.125 -0.5913  2.2182  1.9562
 3609TIP3    H236939   6.789   2.330   7.256  0.7374 -2.0440 -0.3544
 3610TIP3   OH236940   3.384   6.325   6.916 -0.0082  0.3831  0.0472
 3610TIP3    H136941   3.447   6.254   6.924 -0.4516  0.1396  1.6742
 3610TIP3    H236942   3.322   6.311   6.988  0.7534  3.2420  1.4126
 3611TIP3   OH236943   4.919   4.797   0.181  0.0868 -0.1971  0.4582
 3611TIP3    H136944   5.010   4.772   0.195 -0.8699 -2.8664  2.8241
 3611TIP3    H236945   4.880   4.724   0.133 -1.1717  0.1159  0.9472
 3612TIP3   OH236946   2.095   7.515   1.890  0.5010 -0.0225  0.1434
 3612TIP3    H136947   2.144   7.589   1.854 -0.5745  0.0652 -1.2145
 3612TIP3    H236948   2.162   7.462   1.934  1.6112  0.7156 -0.5954
 3613TIP3   OH236949   1.618   4.931   1.596  0.8138  0.3667  0.2943
 3613TIP3    H136950   1.570   4.858   1.633 -1.0224  1.9643  1.2332
 3613TIP3    H236951   1.679   4.958   1.664  0.3179  0.7269  0.6044
 3614TIP3   OH236952   4.861   1.291   7.899  0.4890  0.2085  0.7859
 3614TIP3    H136953   4.766   1.284   7.895  0.5631 -0.3476 -0.3713
 3614TIP3    H236954   4.893   1.211   7.859  1.4524  0.5768  0.7902
 3615TIP3   OH236955   5.404   0.392   0.636 -0.1422  0.1899 -0.2147
 3615TIP3    H136956   5.443   0.391   0.723 -1.7758  0.1409  0.5406
 3615TIP3    H236957   5.406   0.300   0.608 -1.1793 -0.0793  0.5227
 3616TIP3   OH236958   7.121   4.196   0.715 -0.1331  0.2503 -0.5356
 3616TIP3    H136959   7.214   4.175   0.706 -0.0289  1.6000 -3.9617
 3616TIP3    H236960   7.078   4.112   0.726  1.4727 -0.3609  1.7265
 3617TIP3   OH236961   3.017   7.659   1.134  0.1571  1.0589  0.5985
 3617TIP3    H136962   2.988   7.575   1.170  2.7982 -0.2298 -0.0447
 3617TIP3    H236963   2.985   7.724   1.197 -0.7323 -0.5380  1.8849
 3618TIP3   OH236964   5.043   6.755   1.003 -0.2079  0.3552  0.0229
 3618TIP3    H136965   5.029   6.849   0.990  0.3417  0.6334  1.3150
 3618TIP3    H236966   4.957   6.723   1.031  0.0546  0.8335  1.4276
 3619TIP3   OH236967   1.829   1.879   6.703  0.2231 -0.3486  0.1202
 3619TIP3    H136968   1.873   1.814   6.648 -0.2817  0.1933 -0.9538
 3619TIP3    H236969   1.773   1.928   6.643 -0.5292  0.1183  1.1659
 3620TIP3   OH236970   4.023   0.190   7.471 -0.6153 -0.4082 -0.9470
 3620TIP3    H136971   3.970   0.238   7.535 -0.2504 -1.1843 -0.0315
 3620TIP3    H236972   4.056   0.257   7.412 -4.1265 -0.0578 -2.7635
 3621TIP3   OH236973   1.560   0.099   0.168  0.0343  0.5507 -0.3885
 3621TIP3    H136974   1.601   0.029   0.117 -2.8940 -0.9805 -0.8331
 3621TIP3    H236975   1.558   0.067   0.258 -0.6302  0.3702 -0.4621
 3622TIP3   OH236976   4.526   5.083   0.023  0.9322  0.0472  0.0458
 3622TIP3    H136977   4.495   5.129  -0.054  1.6858 -0.1170 -0.3699
 3622TIP3    H236978   4.607   5.039  -0.006  1.4921  0.3818  1.0514
 3623TIP3   OH236979   2.294   3.822   7.850 -0.5754 -0.4927  1.1194
 3623TIP3    H136980   2.260   3.909   7.828 -1.4272 -0.9707  0.4549
 3623TIP3    H236981   2.359   3.838   7.918  1.1924  0.9456 -0.7825
 3624TIP3   OH236982   1.642   5.807   5.620 -1.2458 -0.4804  0.3400
 3624TIP3    H136983   1.722   5.815   5.568 -1.4227 -2.0122 -0.2297
 3624TIP3    H236984   1.674   5.797   5.710 -0.9508  2.4896  0.6681
 3625TIP3   OH236985   5.932   1.480   7.260 -0.1447 -0.6101  0.0592
 3625TIP3    H136986   5.902   1.433   7.338  1.5156 -0.2418  0.9800
 3625TIP3    H236987   5.918   1.572   7.281 -1.6513 -0.5656 -0.9800
 3626TIP3   OH236988   3.529   0.686   0.881  0.2191  0.2861  0.2912
 3626TIP3    H136989   3.509   0.687   0.974 -0.0614 -0.0434  0.2366
 3626TIP3    H236990   3.510   0.597   0.852  0.7176  0.2657  0.0035
 3627TIP3   OH236991   3.855   3.141   7.306  0.2626 -0.1210 -0.3481
 3627TIP3    H136992   3.914   3.066   7.318 -0.2983 -0.9772 -2.4524
 3627TIP3    H236993   3.873   3.172   7.217 -0.5586  1.3314 -0.0391
 3628TIP3   OH236994   7.080   6.005   1.542 -0.3140 -0.0177  0.1824
 3628TIP3    H136995   7.073   5.916   1.576 -0.9446 -0.5144 -1.1731
 3628TIP3    H236996   7.139   6.050   1.603  0.6875 -1.5889  0.4178
 3629TIP3   OH236997   7.508   4.565   7.554 -0.1333 -0.1976  0.1599
 3629TIP3    H136998   7.426   4.516   7.561 -1.1832  1.3998 -0.3583
 3629TIP3    H236999   7.485   4.654   7.581  1.4607  0.2596  0.1010
 3630TIP3   OH237000   6.153   0.118   7.305  0.5001 -0.1265 -0.6506
 3630TIP3    H137001   6.128   0.157   7.221  0.1671 -1.9656 -1.4675
 3630TIP3    H237002   6.084   0.053   7.322  1.6546 -1.2189  0.0018
 3631TIP3   OH237003   3.641   6.586   7.423  0.0801  0.5759 -0.3421
 3631TIP3    H137004   3.661   6.669   7.467  0.7634 -1.7991  4.6311
 3631TIP3    H237005   3.548   6.570   7.443 -0.7836  1.0863 -3.4214
 3632TIP3   OH237006   6.453   5.653   6.271 -0.2906 -0.5050  0.2983
 3632TIP3    H137007   6.483   5.619   6.186  0.2246  2.1564 -0.6940
 3632TIP3    H237008   6.363   5.680   6.254 -0.3533 -0.4438  0.7424
 3633TIP3   OH237009   3.358   3.947   7.019 -0.2812  0.1697  0.1190
 3633TIP3    H137010   3.430   3.925   6.960 -0.0299 -0.6616  0.7233
 3633TIP3    H237011   3.384   3.911   7.104 -1.7443 -0.8456  0.1730
 3634TIP3   OH237012   0.207   7.332   6.085 -0.3018  0.0557  0.2010
 3634TIP3    H137013   0.200   7.258   6.026 -1.4861 -0.7927  1.3336
 3634TIP3    H237014   0.300   7.350   6.092 -0.1178 -0.0603 -1.5893
 3635TIP3   OH237015   7.653   0.153   7.080  0.0496  0.1096 -0.3410
 3635TIP3    H137016   7.597   0.163   7.157 -1.0242 -0.3701 -1.0312
 3635TIP3    H237017   7.708   0.078   7.100 -0.5551 -0.3113 -0.2135
 3636TIP3   OH237018   5.531   7.601   6.449 -0.2702  0.3635 -0.3832
 3636TIP3    H137019   5.596   7.563   6.507 -1.4387  1.0132  1.4400
 3636TIP3    H237020   5.543   7.555   6.366  0.4724 -1.6724  0.7779
 3637TIP3   OH237021   7.505   4.973   0.231 -0.6477  0.3333 -0.1199
 3637TIP3    H137022   7.432   4.919   0.198 -1.5487  0.6694  1.2393
 3637TIP3    H237023   7.583   4.925   0.204 -1.3669 -0.3613 -1.0932
 3638TIP3   OH237024   1.327   7.900   7.057 -0.6838 -0.0111 -0.1211
 3638TIP3    H137025   1.309   7.993   7.048  2.8446  0.6685 -1.7928
 3638TIP3    H237026   1.409   7.895   7.107 -1.5552 -2.3760  1.3046
 3639TIP3   OH237027   5.563   4.943   1.091  0.0887  0.7457  0.4185
 3639TIP3    H137028   5.591   4.851   1.097 -1.5108  0.0981 -0.9779
 3639TIP3    H237029   5.627   4.983   1.032  1.0541  0.6699  1.3797
 3640TIP3   OH237030   4.955   1.806   7.751  0.3759 -0.2507  0.3178
 3640TIP3    H137031   4.929   1.813   7.843 -0.9797  0.3099 -0.0885
 3640TIP3    H237032   4.990   1.893   7.730  1.4076 -0.6053  0.4897
 3641TIP3   OH237033   7.391   0.140   5.884 -0.7649 -0.2386 -0.3488
 3641TIP3    H137034   7.303   0.148   5.922 -1.2474  2.3475 -1.7366
 3641TIP3    H237035   7.429   0.227   5.895  1.3562 -1.0982 -0.4895
 3642TIP3   OH237036   0.049   3.198   5.486  0.1978  0.4613  0.8448
 3642TIP3    H137037   0.034   3.127   5.423  0.3542  0.1859  1.1172
 3642TIP3    H237038   0.139   3.228   5.467  0.1870  0.4860  0.8323
 3643TIP3   OH237039   0.793   6.722   7.513  0.2675 -0.1348 -0.7724
 3643TIP3    H137040   0.816   6.809   7.545  0.0128 -0.4353  0.3003
 3643TIP3    H237041   0.722   6.694   7.571  3.0088 -2.6962  1.7372
 3644TIP3   OH237042   6.303   0.860   0.545  0.9713  0.7433 -0.1380
 3644TIP3    H137043   6.239   0.842   0.476  0.8866  0.8087 -0.0766
 3644TIP3    H237044   6.321   0.774   0.584  0.4144  0.8158  0.2880
 3645TIP3   OH237045   7.734   4.627   0.795 -0.5797  0.4026  0.1545
 3645TIP3    H137046   7.718   4.573   0.718 -1.8030  2.4653 -1.1041
 3645TIP3    H237047   7.826   4.610   0.818 -0.4820 -0.9729 -1.1276
 3646TIP3   OH237048   5.437   7.947   1.478  0.1970 -0.1545 -0.1750
 3646TIP3    H137049   5.526   7.957   1.447 -0.0167  0.8785 -0.5201
 3646TIP3    H237050   5.395   7.889   1.415  0.0537  1.0860 -1.2797
 3647TIP3   OH237051   4.985   0.384   1.280  0.7278  0.0852 -0.2644
 3647TIP3    H137052   5.047   0.320   1.315  0.9276  0.4441  0.0478
 3647TIP3    H237053   5.000   0.462   1.333 -0.4199 -0.0123  0.2249
 3648TIP3   OH237054   5.375   1.371   0.281 -0.1213 -0.4266 -0.4467
 3648TIP3    H137055   5.469   1.376   0.298 -0.5006 -1.9764  3.1530
 3648TIP3    H237056   5.360   1.281   0.254 -0.7996 -1.2309  2.2422
 3649TIP3   OH237057   5.186   3.466   1.113 -0.4443 -0.0925  0.2069
 3649TIP3    H137058   5.164   3.547   1.066  0.9044  0.1796  0.0070
 3649TIP3    H237059   5.126   3.401   1.077  0.6275  0.0675 -2.0785
 3650TIP3   OH237060   1.738   5.950   7.040 -0.1270 -0.3093  0.3519
 3650TIP3    H137061   1.799   5.920   6.973 -0.3335 -1.0956  0.5117
 3650TIP3    H237062   1.684   6.016   6.995 -0.0087 -0.5462 -0.1455
 3651TIP3   OH237063   1.576   6.851   7.461  0.0922  0.3325  0.1982
 3651TIP3    H137064   1.626   6.787   7.410  0.3170  0.9841 -0.4063
 3651TIP3    H237065   1.546   6.915   7.397 -0.6519  0.5126  0.7109
 3652TIP3   OH237066   7.460   5.886   2.502 -0.2921  0.5517 -0.4182
 3652TIP3    H137067   7.541   5.891   2.553 -0.2244  0.6367 -0.5332
 3652TIP3    H237068   7.475   5.944   2.428 -0.9656  1.6218  0.2614
 3653TIP3   OH237069   3.135   8.070   6.136  0.0816 -0.0586 -0.1172
 3653TIP3    H137070   3.189   8.100   6.062  0.9635 -1.4487 -0.0736
 3653TIP3    H237071   3.190   8.085   6.213  0.1555 -0.9019 -0.0039
 3654TIP3   OH237072   4.430   1.195   0.315  0.2242 -0.2176  0.0606
 3654TIP3    H137073   4.509   1.249   0.315 -0.4380  0.7736 -0.3322
 3654TIP3    H237074   4.459   1.110   0.281  1.8282 -0.9974  3.0864
 3655TIP3   OH237075   5.894   6.534   0.670 -0.6881 -0.0495  0.0223
 3655TIP3    H137076   5.809   6.531   0.715 -0.2129 -1.1383  0.9197
 3655TIP3    H237077   5.874   6.566   0.582 -2.0401 -0.3538  0.1971
 3656TIP3   OH237078   6.214   6.696   7.310 -0.1565 -0.0397  0.5870
 3656TIP3    H137079   6.139   6.753   7.328  0.8621  1.9451 -0.9242
 3656TIP3    H237080   6.178   6.626   7.255 -0.7160  1.8282 -1.6079
 3657TIP3   OH237081   7.403   7.250   7.593 -0.3810  0.7973  0.2006
 3657TIP3    H137082   7.332   7.216   7.647 -1.8584  0.9798 -1.4994
 3657TIP3    H237083   7.449   7.172   7.562 -1.4959  0.4754 -0.7532
 3658TIP3   OH237084   5.652   1.630   2.095 -0.1355 -0.3405 -0.0762
 3658TIP3    H137085   5.564   1.602   2.071  0.0887 -0.6078 -0.6277
 3658TIP3    H237086   5.672   1.582   2.175 -1.0343  0.8181  0.8791
 3659TIP3   OH237087   7.222   2.425   0.861  0.5438 -0.3199  0.0453
 3659TIP3    H137088   7.182   2.351   0.815 -0.1653 -0.6586  1.1777
 3659TIP3    H237089   7.148   2.471   0.901  1.1607 -0.1227  0.9732
 3660TIP3   OH237090   5.542   6.737   0.914 -0.2416 -0.1724  0.3866
 3660TIP3    H137091   5.580   6.655   0.943 -0.2903  0.6270  2.9669
 3660TIP3    H237092   5.449   6.717   0.902 -0.0344 -0.7743 -0.2985
 3661TIP3   OH237093   1.711   7.286   7.714  0.6249  0.1786 -0.8798
 3661TIP3    H137094   1.633   7.332   7.684 -0.0133  0.5421  1.1330
 3661TIP3    H237095   1.694   7.194   7.696 -0.9168  0.0955  0.6917
 3662TIP3   OH237096   6.304   2.001   2.077 -0.3786  0.8044 -0.2337
 3662TIP3    H137097   6.308   1.926   2.017 -1.2450  1.2450 -0.8519
 3662TIP3    H237098   6.339   1.967   2.159  0.8391  0.1868 -0.9717
 3663TIP3   OH237099   7.190   3.003   6.596 -0.2124  0.0718  0.0829
 3663TIP3    H137100   7.239   2.964   6.668 -0.5717  0.2485  0.4322
 3663TIP3    H237101   7.203   2.944   6.522  0.1504 -0.1181  0.2989
 3664TIP3   OH237102   0.156   7.355   0.992  0.4417  0.3599  0.5044
 3664TIP3    H137103   0.233   7.394   1.033  0.8682 -0.5038  0.5398
 3664TIP3    H237104   0.125   7.422   0.931  1.9546  0.2774 -0.4125
 3665TIP3   OH237105   3.559   0.882   7.926 -0.1652  0.2665  0.2107
 3665TIP3    H137106   3.489   0.906   7.866  1.1786  0.1275 -1.5023
 3665TIP3    H237107   3.602   0.965   7.947 -0.3703  0.2627  0.6649
 3666TIP3   OH237108   4.979   4.834   1.598  0.0440  0.5896  0.3228
 3666TIP3    H137109   4.941   4.899   1.538 -1.9621 -0.3393  0.5020
 3666TIP3    H237110   4.913   4.764   1.602  1.0069 -0.2728  2.1144
 3667TIP3   OH237111   0.288   4.578   7.063 -0.1484  0.1485 -0.8450
 3667TIP3    H137112   0.322   4.591   7.151  0.0726 -0.1973 -0.8776
 3667TIP3    H237113   0.357   4.531   7.017 -1.2865 -2.0184 -0.4508
 3668TIP3   OH237114   0.087   5.329   0.283 -0.0840 -0.3910 -0.5803
 3668TIP3    H137115   0.151   5.264   0.253 -1.5761 -0.9353 -2.7347
 3668TIP3    H237116   0.073   5.386   0.208 -1.2232  0.4916  0.2651
 3669TIP3   OH237117   7.718   0.598   5.801  0.5399 -0.0855  0.3273
 3669TIP3    H137118   7.643   0.548   5.766 -2.2718  2.8833  1.5813
 3669TIP3    H237119   7.787   0.586   5.736 -1.4206 -1.9516 -1.5946
 3670TIP3   OH237120   1.469   4.414   1.664 -0.5142 -0.2846 -0.0418
 3670TIP3    H137121   1.420   4.333   1.670  0.5451 -0.9360  0.1643
 3670TIP3    H237122   1.561   4.386   1.657  0.0889  0.9091  2.1597
 3671TIP3   OH237123   3.792   1.721   1.123 -0.5734  0.2544  0.0387
 3671TIP3    H137124   3.728   1.791   1.134 -1.3053 -0.4952  0.6307
 3671TIP3    H237125   3.857   1.757   1.062  0.3552  2.3389  2.0920
 3672TIP3   OH237126   0.922   1.434   7.060 -0.0607 -0.4139 -0.1824
 3672TIP3    H137127   0.838   1.428   7.105 -0.0549  0.8841  0.0506
 3672TIP3    H237128   0.957   1.345   7.062 -1.6948 -1.1225 -0.8383
 3673TIP3   OH237129   0.640   1.338   5.793 -0.2452  0.2755 -0.0691
 3673TIP3    H137130   0.559   1.327   5.843  1.2302 -0.5272  2.2693
 3673TIP3    H237131   0.657   1.432   5.796  0.2072  0.1701  1.6624
 3674TIP3   OH237132   2.106   6.268   0.518  0.0781  0.3380 -0.6529
 3674TIP3    H137133   2.053   6.349   0.516 -0.3816  0.0391 -0.7624
 3674TIP3    H237134   2.183   6.292   0.569 -1.1349  0.2341  1.3800
 3675TIP3   OH237135   5.246   1.868   7.198  0.9534 -0.2597 -0.0269
 3675TIP3    H137136   5.199   1.786   7.185 -0.9680  0.6464  0.7465
 3675TIP3    H237137   5.181   1.936   7.176  1.8892  1.0653  1.1503
 3676TIP3   OH237138   3.723   4.605   5.798  0.0229 -0.4396  0.4356
 3676TIP3    H137139   3.765   4.688   5.778  0.0222 -0.5830 -0.1922
 3676TIP3    H237140   3.640   4.629   5.838 -0.5795 -0.0933 -0.9317
 3677TIP3   OH237141   0.645   0.232   7.730 -0.4331  0.0315  0.7384
 3677TIP3    H137142   0.710   0.193   7.672  0.2146  1.9001  0.1328
 3677TIP3    H237143   0.611   0.307   7.681 -0.4742  1.1655  2.4103
 3678TIP3   OH237144   4.690   2.578   6.627 -0.5705 -0.2246 -0.6711
 3678TIP3    H137145   4.634   2.624   6.564  1.6104 -0.7196 -3.1135
 3678TIP3    H237146   4.658   2.488   6.626 -2.0679  0.2484  0.8267
 3679TIP3   OH237147   3.147   3.742   6.383  0.2537 -0.1515 -0.1215
 3679TIP3    H137148   3.171   3.681   6.453  1.1517 -0.8554 -1.0200
 3679TIP3    H237149   3.222   3.801   6.376 -0.0336  0.2080 -0.1685
 3680TIP3   OH237150   4.960   0.931   7.438  0.4711  0.0306  0.0135
 3680TIP3    H137151   4.946   0.953   7.346 -4.2663 -1.8420 -0.0034
 3680TIP3    H237152   5.045   0.886   7.439  1.1438  0.9656 -3.1791
 3681TIP3   OH237153   6.539   3.090   0.309 -0.2633 -0.2436  0.1952
 3681TIP3    H137154   6.577   3.122   0.390 -1.2219 -0.9328  0.9435
 3681TIP3    H237155   6.606   3.107   0.243 -0.1443  1.9345  0.7859
 3682TIP3   OH237156   3.719   6.482   0.226  0.5537 -0.5242  0.3574
 3682TIP3    H137157   3.660   6.444   0.290 -0.6976  2.9210  1.4694
 3682TIP3    H237158   3.744   6.567   0.263  0.7901  1.1060 -3.1054
 3683TIP3   OH237159   0.812   5.799   7.324  0.5328  0.3522  0.3935
 3683TIP3    H137160   0.795   5.892   7.339 -0.2417  0.1226  0.9598
 3683TIP3    H237161   0.734   5.754   7.355 -0.4894 -0.3107 -2.7605
 3684TIP3   OH237162   0.197   7.261   0.573  0.4164  0.3286  0.1259
 3684TIP3    H137163   0.221   7.178   0.614 -1.7307  0.0564  0.9284
 3684TIP3    H237164   0.280   7.307   0.563  1.4001 -0.9819  1.7321
 3685TIP3   OH237165   1.928   1.061   6.066 -0.4248  0.2405 -0.2365
 3685TIP3    H137166   1.859   1.021   6.119 -0.6778 -0.8098 -1.3113
 3685TIP3    H237167   1.980   1.111   6.129  0.3804 -2.4115  1.3676
 3686TIP3   OH237168   1.915   6.756   5.615 -0.4277  0.0122  0.0059
 3686TIP3    H137169   1.950   6.705   5.689 -0.2992 -0.2961 -0.2673
 3686TIP3    H237170   1.987   6.815   5.591 -1.3447  2.0363  1.8481
 3687TIP3   OH237171   4.063   6.974   0.742  0.3719  0.2074  0.1035
 3687TIP3    H137172   3.999   6.906   0.761 -0.0031  0.6894  0.6085
 3687TIP3    H237173   4.042   7.004   0.654 -0.1508  0.4121  0.2935
 3688TIP3   OH237174   8.030   7.389   6.168 -0.2810 -0.3665 -0.4866
 3688TIP3    H137175   8.120   7.363   6.149 -0.2990 -1.4322  0.7308
 3688TIP3    H237176   8.035   7.429   6.255 -0.9468 -0.1680 -0.5338
 3689TIP3   OH237177   6.660   5.956   6.759  0.8774  0.0792  0.1452
 3689TIP3    H137178   6.658   5.879   6.701  0.5046  0.2340 -0.0476
 3689TIP3    H237179   6.709   6.022   6.710 -1.6959  1.1497 -1.1886
 3690TIP3   OH237180   3.469   0.236   1.104  0.1863  0.4950 -0.0659
 3690TIP3    H137181   3.509   0.172   1.044 -0.3815 -0.8263  0.9009
 3690TIP3    H237182   3.538   0.300   1.120  0.8248  0.0518 -0.9775
 3691TIP3   OH237183   6.311   4.065   7.586 -0.4070 -0.2639  0.1400
 3691TIP3    H137184   6.308   4.053   7.491 -1.5943  0.2283  0.1040
 3691TIP3    H237185   6.283   3.981   7.622  0.7533 -0.6926  0.0861
 3692TIP3   OH237186   5.079   3.028   1.224 -1.2350  0.0613  0.1511
 3692TIP3    H137187   5.081   2.941   1.184 -2.2530 -0.4060  1.0830
 3692TIP3    H237188   4.999   3.068   1.192 -0.7981  0.6477 -0.2295
 3693TIP3   OH237189   6.939   1.135   6.321  0.1943 -0.3485  0.2285
 3693TIP3    H137190   6.918   1.228   6.323  1.0688 -0.1273 -0.2844
 3693TIP3    H237191   6.940   1.109   6.414 -0.3539  0.0744  0.3570
 3694TIP3   OH237192   7.984   6.614   7.779 -0.3484  0.8938  0.3635
 3694TIP3    H137193   8.069   6.600   7.736 -0.5336 -0.1231  0.3102
 3694TIP3    H237194   8.003   6.677   7.848  1.2668 -1.9532  2.7481
 3695TIP3   OH237195   0.028   7.818   1.075  0.5303  0.3008  0.2392
 3695TIP3    H137196  -0.054   7.773   1.055  0.8427  0.5691 -1.8976
 3695TIP3    H237197   0.096   7.763   1.036  1.1302  1.3317 -0.2317
 3696TIP3   OH237198   2.056   3.079   7.222 -0.2397 -0.6048  0.7298
 3696TIP3    H137199   1.977   3.133   7.225  0.1112  0.0108 -0.4637
 3696TIP3    H237200   2.123   3.131   7.267 -0.0349 -0.2756  0.0481
 3697TIP3   OH237201   3.169   4.090   5.966  0.2412 -0.2552 -0.4776
 3697TIP3    H137202   3.240   4.107   6.028  1.1689 -1.4997 -1.1719
 3697TIP3    H237203   3.161   4.171   5.916 -0.1882  0.5950  0.8962
 3698TIP3   OH237204   0.925   6.895   5.757 -0.3960 -0.6558  0.8203
 3698TIP3    H137205   1.006   6.858   5.795 -0.8934  0.1962  2.8436
 3698TIP3    H237206   0.903   6.835   5.686  1.4190 -1.5228  0.9208
 3699TIP3   OH237207   8.040   1.594   2.180  0.3074  0.0766 -0.4919
 3699TIP3    H137208   8.019   1.661   2.115  1.6104  1.7130  0.6752
 3699TIP3    H237209   8.078   1.522   2.130  0.5449  0.9671 -1.6199
 3700TIP3   OH237210   2.832   6.635   1.187 -0.1847 -0.1944 -0.2687
 3700TIP3    H137211   2.784   6.554   1.166 -0.8172 -0.7748  2.9103
 3700TIP3    H237212   2.918   6.605   1.215 -0.2957  0.2330  0.5662
 3701TIP3   OH237213   7.761   0.637   2.486 -0.5665 -0.0476  0.8613
 3701TIP3    H137214   7.812   0.557   2.475 -0.5794 -0.2025  1.8541
 3701TIP3    H237215   7.810   0.703   2.437 -1.2562 -0.9200 -1.0922
 3702TIP3   OH237216   2.843   4.311   1.271 -0.0903 -0.2537 -0.1921
 3702TIP3    H137217   2.813   4.342   1.185 -0.8084  0.9721  0.4665
 3702TIP3    H237218   2.912   4.373   1.296 -0.7821  0.1908  0.6683
 3703TIP3   OH237219   5.273   0.885   0.315 -0.6165 -0.6282  0.0163
 3703TIP3    H137220   5.228   0.800   0.316 -1.0448 -0.5575 -2.9980
 3703TIP3    H237221   5.366   0.863   0.306 -0.8596 -0.8776 -2.5220
 3704TIP3   OH237222   0.725   2.554   0.895  0.2756  0.1954  0.1222
 3704TIP3    H137223   0.683   2.621   0.841  0.6245 -0.3096 -0.8064
 3704TIP3    H237224   0.653   2.511   0.941 -0.0745  0.3444 -0.2850
 3705TIP3   OH237225   0.993   3.735   6.815  0.2367 -0.6353 -0.2833
 3705TIP3    H137226   1.015   3.646   6.843  1.4761  0.0642  1.1068
 3705TIP3    H237227   1.063   3.789   6.851 -0.7769  0.9807 -0.6556
 3706TIP3   OH237228   3.492   0.449   1.466  0.0855 -0.5797  0.0800
 3706TIP3    H137229   3.449   0.535   1.464 -0.1292 -0.6934 -0.2024
 3706TIP3    H237230   3.581   0.466   1.438  0.0834 -0.4266  0.1623
 3707TIP3   OH237231   1.400   0.052   5.076  0.1265 -0.2486 -0.6864
 3707TIP3    H137232   1.420  -0.040   5.095  1.0933 -0.2091 -1.4350
 3707TIP3    H237233   1.482   0.098   5.095 -0.6431  0.6274  0.6786
 3708TIP3   OH237234   0.868   4.207   0.770  0.0544  0.1669 -0.0135
 3708TIP3    H137235   0.939   4.165   0.721 -0.8231 -1.1640 -0.2090
 3708TIP3    H237236   0.822   4.260   0.705 -0.7437 -1.1174 -0.5226
 3709TIP3   OH237237   1.381   1.603   0.836 -0.2441 -0.2613  0.7268
 3709TIP3    H137238   1.339   1.664   0.775 -1.7295 -1.4918  0.4429
 3709TIP3    H237239   1.390   1.522   0.785  0.7878 -0.5792  1.3912
 3710TIP3   OH237240   2.743   1.272   7.732 -0.1769  0.4523  0.1698
 3710TIP3    H137241   2.655   1.309   7.739 -0.3774 -0.0165  0.2128
 3710TIP3    H237242   2.770   1.257   7.823 -0.5861 -0.6132  0.1297
 3711TIP3   OH237243   5.087   3.498   2.647  0.1118  0.3788 -0.2219
 3711TIP3    H137244   5.111   3.411   2.681 -0.6121  0.3061  0.1084
 3711TIP3    H237245   5.171   3.541   2.633  0.5056  0.9876  3.1254
 3712TIP3   OH237246   3.565   4.762   6.380 -0.0302  0.5575 -0.7429
 3712TIP3    H137247   3.635   4.700   6.400 -1.0918 -0.0741  1.3534
 3712TIP3    H237248   3.520   4.724   6.305  0.5308 -0.1999 -0.7048
 3713TIP3   OH237249   7.262   2.975   6.950  0.2852 -0.7680 -0.2206
 3713TIP3    H137250   7.244   2.881   6.955  0.4672 -0.7634  4.0978
 3713TIP3    H237251   7.175   3.016   6.945  0.1249 -1.1528 -0.5938
 3714TIP3   OH237252   0.980   3.101   5.814 -0.5318  0.2610 -1.2903
 3714TIP3    H137253   0.895   3.104   5.858 -0.9036 -4.0807 -1.2773
 3714TIP3    H237254   1.044   3.111   5.885 -1.1321 -1.8283 -0.3624
 3715TIP3   OH237255   2.498   2.704   7.876  0.4897  0.1159  0.7075
 3715TIP3    H137256   2.575   2.701   7.818  0.1365  0.1036  0.2365
 3715TIP3    H237257   2.482   2.612   7.898 -0.2836 -0.0316 -0.3921
 3716TIP3   OH237258   5.746   2.781   5.739 -0.3345 -0.0226 -0.4986
 3716TIP3    H137259   5.737   2.690   5.768 -1.8219  1.1347  3.3101
 3716TIP3    H237260   5.824   2.781   5.684  0.5898 -3.3409  0.5623
 3717TIP3   OH237261   2.793   4.348   0.995 -0.3907  0.3521 -0.0913
 3717TIP3    H137262   2.732   4.363   0.923  0.7844 -3.4712 -2.1163
 3717TIP3    H237263   2.879   4.365   0.958  0.1004  1.8431  1.5776
 3718TIP3   OH237264   0.692   4.083   0.098  0.0950 -0.5746  0.5265
 3718TIP3    H137265   0.615   4.029   0.114 -0.5505  1.0518  3.9700
 3718TIP3    H237266   0.749   4.065   0.173  1.3518  0.9986 -0.0064
 3719TIP3   OH237267   1.439   3.618   1.492  0.2440 -0.2977 -0.6132
 3719TIP3    H137268   1.509   3.647   1.550 -0.0668  0.1676 -0.4639
 3719TIP3    H237269   1.420   3.695   1.438 -0.4631 -0.2655 -0.3345
 3720TIP3   OH237270   1.338   2.406   0.446  0.2566 -0.2152  0.1600
 3720TIP3    H137271   1.347   2.497   0.475  2.2602 -0.0763 -0.7332
 3720TIP3    H237272   1.428   2.374   0.439 -0.3377 -1.7058 -1.2954
 3721TIP3   OH237273   6.626   3.061   5.828 -0.2209 -0.3170 -0.2004
 3721TIP3    H137274   6.637   2.985   5.886 -1.1876 -0.8207 -0.6459
 3721TIP3    H237275   6.632   3.024   5.740 -1.0349  0.0510 -0.4222
 3722TIP3   OH237276   7.980   2.526   6.719 -0.2192  0.4704  0.0366
 3722TIP3    H137277   8.035   2.473   6.660 -1.4853  0.9571 -1.6520
 3722TIP3    H237278   8.035   2.601   6.741 -0.0787  0.8267 -1.4298
 3723TIP3   OH237279   7.272   7.810   0.217  0.6762  0.4067  0.1647
 3723TIP3    H137280   7.323   7.839   0.142 -0.7575 -0.1831 -1.0912
 3723TIP3    H237281   7.255   7.890   0.267  1.5810  0.8174 -0.1666
 3724TIP3   OH237282   5.957   6.260   1.747 -0.2023 -0.0434 -0.0616
 3724TIP3    H137283   5.926   6.293   1.831 -2.3085 -3.0603  0.5172
 3724TIP3    H237284   5.877   6.235   1.700  1.0529 -0.9600 -1.8295
 3725TIP3   OH237285   2.679   2.965   0.550 -0.1762  0.5370 -0.4899
 3725TIP3    H137286   2.768   2.950   0.582 -0.2521  0.8139 -0.1475
 3725TIP3    H237287   2.656   3.052   0.582  0.0036  1.1160 -1.8954
 3726TIP3   OH237288   0.128   7.270   2.095  0.2215 -0.2248 -0.0229
 3726TIP3    H137289   0.125   7.192   2.039  0.2599  0.0593 -0.4235
 3726TIP3    H237290   0.069   7.249   2.168  1.6321 -1.3693  0.8513
 3727TIP3   OH237291   4.054   5.086   7.474  0.1265 -0.1863  0.2477
 3727TIP3    H137292   4.074   5.062   7.565  0.0383 -0.7445  0.1222
 3727TIP3    H237293   4.000   5.014   7.442 -0.1269  0.1757 -0.1465
 3728TIP3   OH237294   3.432   6.731   6.423  0.3639  0.0312  0.3806
 3728TIP3    H137295   3.497   6.685   6.477  0.9707  0.1329 -0.2449
 3728TIP3    H237296   3.452   6.824   6.435 -0.1122  0.0938  0.7228
 3729TIP3   OH237297   7.180   2.284   5.978  0.2096 -0.5894 -0.1686
 3729TIP3    H137298   7.236   2.319   5.909 -0.2381  1.0242  0.2361
 3729TIP3    H237299   7.091   2.301   5.949  0.0064 -0.3003  0.5840
 3730TIP3   OH237300   0.029   1.173   1.246 -0.1031 -0.1763  0.5962
 3730TIP3    H137301   0.079   1.244   1.206  0.2562 -1.0794 -0.6238
 3730TIP3    H237302   0.038   1.100   1.184 -2.5823 -0.5070  0.5479
 3731TIP3   OH237303   5.697   7.434   6.581 -0.1967 -0.0507  0.2081
 3731TIP3    H137304   5.781   7.410   6.622  0.9938  0.9395 -1.5128
 3731TIP3    H237305   5.687   7.372   6.510 -1.3057 -0.5920  0.8219
 3732TIP3   OH237306   3.032   3.818   6.964 -0.2807  0.3204  0.2910
 3732TIP3    H137307   3.108   3.857   7.007  0.6803 -3.2081  2.2074
 3732TIP3    H237308   3.066   3.782   6.882 -0.1693 -0.1138  0.5249
 3733TIP3   OH237309   3.050   5.213   6.583 -0.8204  0.0655 -0.1851
 3733TIP3    H137310   3.072   5.301   6.552  1.4234 -0.4825 -0.2677
 3733TIP3    H237311   3.023   5.226   6.674 -1.7281  0.9549 -0.5531
 3734TIP3   OH237312   7.725   6.523   7.653  0.0891 -0.2418  0.2643
 3734TIP3    H137313   7.809   6.497   7.614 -0.4716 -2.6752  0.5076
 3734TIP3    H237314   7.749   6.564   7.736  1.0873  0.8762 -0.5406
 3735TIP3   OH237315   7.348   1.930   2.423 -0.4281  0.3811  0.0632
 3735TIP3    H137316   7.415   1.942   2.491 -0.5796  0.8467  0.1325
 3735TIP3    H237317   7.398   1.905   2.345 -0.2198  0.2063  0.2516
 3736TIP3   OH237318   6.711   3.080   1.806 -0.5217  0.1768 -0.0652
 3736TIP3    H137319   6.757   3.005   1.844  1.0231  2.0459  2.0387
 3736TIP3    H237320   6.633   3.090   1.861  0.1095  1.0360  0.6946
 3737TIP3   OH237321   4.814   0.547   1.073 -0.4487 -0.1148  0.4836
 3737TIP3    H137322   4.733   0.579   1.034 -0.5667 -0.4768  0.4229
 3737TIP3    H237323   4.813   0.453   1.054  0.6885  0.1070 -0.8035
 3738TIP3   OH237324   6.359   1.588   0.727 -0.9561 -0.2248  0.1570
 3738TIP3    H137325   6.387   1.665   0.776  0.7108 -1.2767  0.9480
 3738TIP3    H237326   6.338   1.523   0.794 -0.6568 -1.0144 -0.4947
 3739TIP3   OH237327   5.056   4.992   0.335 -0.2444 -0.2834 -0.1970
 3739TIP3    H137328   5.037   4.910   0.380  0.6135 -1.0287 -1.1551
 3739TIP3    H237329   5.047   4.971   0.242  0.2656  0.6445 -0.4697
 3740TIP3   OH237330   5.178   7.884   0.948  0.6203 -0.2658 -0.3857
 3740TIP3    H137331   5.172   7.934   1.029 -0.0913  0.2213 -0.7275
 3740TIP3    H237332   5.233   7.809   0.970  0.7163  0.0429  0.4517
 3741TIP3   OH237333   3.013   0.771   0.943 -0.1585 -0.4251 -0.4479
 3741TIP3    H137334   3.083   0.809   0.996  0.4566  0.0489 -1.5458
 3741TIP3    H237335   2.975   0.702   0.998  2.0497 -1.6108 -0.2742
 3742TIP3   OH237336   7.258   1.008   6.440  0.4043  0.1882 -0.4671
 3742TIP3    H137337   7.232   1.003   6.348  0.2835  0.2706 -0.4382
 3742TIP3    H237338   7.175   1.014   6.488  0.4520 -0.2012 -0.3293
 3743TIP3   OH237339   6.584   5.043   5.782  0.5527 -0.2338 -0.0610
 3743TIP3    H137340   6.511   5.092   5.820  0.6992 -0.4207  0.4616
 3743TIP3    H237341   6.558   4.951   5.788  0.2715 -0.2366 -1.0552
 3744TIP3   OH237342   3.945   6.726   0.752 -0.3604 -0.7241 -0.1360
 3744TIP3    H137343   3.904   6.709   0.837  0.9030  0.4562  0.7660
 3744TIP3    H237344   4.019   6.664   0.749  0.8963  0.6576  0.6528
 3745TIP3   OH237345   7.501   7.263   1.214 -0.4699 -0.2072  0.1416
 3745TIP3    H137346   7.485   7.279   1.121 -1.3374  0.0027  0.3195
 3745TIP3    H237347   7.464   7.176   1.231  0.1824 -0.4828  0.1711
 3746TIP3   OH237348   6.856   0.346   1.288 -0.6691  0.4683 -0.2198
 3746TIP3    H137349   6.929   0.408   1.286 -1.1925  1.0860 -0.9225
 3746TIP3    H237350   6.820   0.353   1.377  0.7962 -0.6769  0.5090
 3747TIP3   OH237351   5.306   4.900   1.943 -0.4731  0.6479  0.0582
 3747TIP3    H137352   5.304   4.896   1.848 -0.0249  2.1704 -0.0355
 3747TIP3    H237353   5.397   4.882   1.966 -0.4849  0.7338  0.1744
 3748TIP3   OH237354   0.240   2.198   6.603 -0.6169  0.4114  0.1328
 3748TIP3    H137355   0.197   2.139   6.664 -1.1468  2.5123  1.9132
 3748TIP3    H237356   0.328   2.211   6.639 -1.3863  2.7785  1.4133
 3749TIP3   OH237357   7.641   3.675   1.558  0.1906 -0.0736  0.6442
 3749TIP3    H137358   7.639   3.655   1.652 -0.7534  0.9793  0.8703
 3749TIP3    H237359   7.553   3.655   1.527 -0.3626  2.1209  0.5853
 3750TIP3   OH237360   7.423   1.461   7.916 -0.1343  0.2102  0.2011
 3750TIP3    H137361   7.514   1.484   7.895 -0.1577  0.0209 -0.1261
 3750TIP3    H237362   7.417   1.469   8.011 -0.5844  3.1531  0.0221
 3751TIP3   OH237363   0.408   6.727   1.730 -0.1568  0.2963  0.6302
 3751TIP3    H137364   0.430   6.813   1.695 -1.6356  0.9502  1.2215
 3751TIP3    H237365   0.467   6.667   1.685 -0.1870  1.4178 -0.9899
 3752TIP3   OH237366   5.526   3.645   7.181 -0.0728 -0.4235 -0.1607
 3752TIP3    H137367   5.599   3.698   7.214  0.4877 -0.9392 -0.5574
 3752TIP3    H237368   5.448   3.695   7.204  0.4034  0.1288  0.2849
 3753TIP3   OH237369   6.260   2.928   1.654  0.5302  0.1896 -0.2880
 3753TIP3    H137370   6.252   2.833   1.664  2.4742 -0.5452 -3.8337
 3753TIP3    H237371   6.200   2.949   1.583  0.9776  1.3998 -0.3230
 3754TIP3   OH237372   2.632   7.631   7.886  0.1313  0.2045  0.7042
 3754TIP3    H137373   2.623   7.717   7.928  2.0914  0.0476  1.5738
 3754TIP3    H237374   2.578   7.573   7.939 -3.0397  1.1886 -1.1789
 3755TIP3   OH237375   8.069   4.172   0.165 -0.3817 -0.4204 -0.3568
 3755TIP3    H137376   8.058   4.254   0.117  1.6551 -1.4102 -2.6966
 3755TIP3    H237377   8.157   4.177   0.202 -0.2450 -1.4904 -0.4907
 3756TIP3   OH237378   0.701   2.893   2.014  0.2670  0.0114 -0.7820
 3756TIP3    H137379   0.734   2.936   2.093  0.1305 -0.3582 -0.5197
 3756TIP3    H237380   0.620   2.939   1.993  0.3873  0.2141 -0.7971
 3757TIP3   OH237381   2.532   6.754   0.102  0.1871 -0.7126  0.6250
 3757TIP3    H137382   2.504   6.721   0.188  0.1380  0.7799  1.2110
 3757TIP3    H237383   2.452   6.789   0.063  0.3817 -0.5728  0.3549
 3758TIP3   OH237384   7.667   1.535   7.132 -0.3607  0.0965 -0.4220
 3758TIP3    H137385   7.594   1.512   7.074 -2.0643 -0.2742  1.7194
 3758TIP3    H237386   7.698   1.452   7.167 -0.4643  0.3970  0.4220
 3759TIP3   OH237387   3.054   4.346   1.747  0.1256  0.5724 -0.2504
 3759TIP3    H137388   3.087   4.267   1.704  1.0266 -0.1406  1.6561
 3759TIP3    H237389   3.065   4.415   1.682  1.4361 -0.4505 -1.1621
 3760TIP3   OH237390   5.820   3.039   2.351 -1.0070  0.0374 -0.3970
 3760TIP3    H137391   5.825   2.977   2.424 -2.5845  0.6230  0.2466
 3760TIP3    H237392   5.815   3.125   2.393  0.6560  0.5958 -1.2749
 3761TIP3   OH237393   3.909   5.139   7.750 -0.1465 -0.3151  0.2087
 3761TIP3    H137394   3.842   5.102   7.693  0.7645 -0.6531 -0.6841
 3761TIP3    H237395   3.912   5.232   7.727 -0.5691 -0.2269  0.5162
 3762TIP3   OH237396   0.303   5.050   6.417 -0.0930 -0.0530  0.0492
 3762TIP3    H137397   0.229   5.021   6.363 -1.4646  2.1902  0.5379
 3762TIP3    H237398   0.287   5.010   6.503 -0.9804  0.6843  0.2475
 3763TIP3   OH237399   2.398   6.068   7.763 -0.5532  0.3039  0.3312
 3763TIP3    H137400   2.459   6.080   7.836 -1.2852  2.2011  0.7047
 3763TIP3    H237401   2.412   6.145   7.708 -1.4525 -0.0718 -0.4457
 3764TIP3   OH237402   5.045   3.750   1.220 -0.4594  0.1496  0.5950
 3764TIP3    H137403   5.050   3.749   1.316  0.7557  1.0742  0.5595
 3764TIP3    H237404   5.119   3.804   1.192 -0.4881 -0.5345 -0.8991
 3765TIP3   OH237405   4.449   4.502   7.884 -0.0510  0.2974 -0.6726
 3765TIP3    H137406   4.524   4.561   7.886  1.2355 -1.2846 -0.0840
 3765TIP3    H237407   4.379   4.553   7.843  0.9084  2.3004  0.0565
 3766TIP3   OH237408   1.704   7.507   4.982  0.5315  0.2582 -0.0480
 3766TIP3    H137409   1.641   7.549   5.040 -0.2362  0.6367 -1.1110
 3766TIP3    H237410   1.651   7.470   4.911  1.1958 -2.3335  0.6998
 3767TIP3   OH237411   4.307   0.127   1.736  0.5550  0.2626 -0.4375
 3767TIP3    H137412   4.361   0.176   1.799  2.3616 -1.2360 -0.7111
 3767TIP3    H237413   4.222   0.117   1.779  0.8031  1.8390  0.4713
 3768TIP3   OH237414   7.195   7.287   6.930 -0.0116  0.1327  0.2418
 3768TIP3    H137415   7.196   7.373   6.888  1.3597  0.9507  1.7974
 3768TIP3    H237416   7.240   7.301   7.013 -1.8172 -1.5790  1.6131
 3769TIP3   OH237417   7.437   3.156   7.389  0.2606 -0.1080  0.0052
 3769TIP3    H137418   7.490   3.144   7.309  1.1595  2.0190  0.1954
 3769TIP3    H237419   7.347   3.163   7.357  0.3684 -1.2841 -0.5987
 3770TIP3   OH237420   5.974   6.071   7.255  0.0539 -0.1139 -0.2648
 3770TIP3    H137421   6.046   6.051   7.316 -0.1846  2.0312  0.8241
 3770TIP3    H237422   6.008   6.141   7.200 -0.9391  0.4345 -0.2029
 3771TIP3   OH237423   5.759   1.786   0.614 -0.0541 -0.4648  0.7095
 3771TIP3    H137424   5.672   1.792   0.653 -0.4887 -0.3473 -0.2549
 3771TIP3    H237425   5.806   1.725   0.671 -0.7123 -0.4128  1.3273
 3772TIP3   OH237426   4.544   4.923   1.292  0.3610 -0.1846 -0.1777
 3772TIP3    H137427   4.497   4.913   1.209  0.4850 -1.6841 -0.1040
 3772TIP3    H237428   4.608   4.851   1.292  0.1972 -0.3573  1.3214
 3773TIP3   OH237429   5.467   7.442   1.496 -0.0270 -0.2460  0.0955
 3773TIP3    H137430   5.502   7.411   1.412  0.9554  0.0669  0.3789
 3773TIP3    H237431   5.540   7.434   1.557 -0.8454 -0.8448  1.0284
 3774TIP3   OH237432   1.795   1.990   5.835 -0.2648  0.1266  0.1644
 3774TIP3    H137433   1.856   1.951   5.773  2.3585  1.4560  1.7569
 3774TIP3    H237434   1.713   1.997   5.786  0.7031 -1.9942 -1.9916
 3775TIP3   OH237435   3.847   2.511   7.843  0.2553 -0.3622  0.2822
 3775TIP3    H137436   3.790   2.567   7.898  2.7292  1.8053  0.8396
 3775TIP3    H237437   3.905   2.468   7.906  1.5098  0.2175 -0.4589
 3776TIP3   OH237438   6.567   0.772   0.850  0.2314  0.3874  0.7672
 3776TIP3    H137439   6.584   0.704   0.785 -2.2180  0.5958 -0.2011
 3776TIP3    H237440   6.650   0.820   0.857  1.3051 -1.2080 -0.2763
 3777TIP3   OH237441   0.448   7.316   0.647 -0.3210 -0.5507  0.2715
 3777TIP3    H137442   0.500   7.300   0.568 -0.5884  1.2252 -0.3341
 3777TIP3    H237443   0.447   7.412   0.655 -1.7949 -0.6283  1.4133
 3778TIP3   OH237444   4.410   6.285   6.508 -0.4733  0.3228  0.6481
 3778TIP3    H137445   4.378   6.311   6.421 -0.1086  0.6912  0.6183
 3778TIP3    H237446   4.449   6.199   6.494 -0.9729  0.1040  0.5789
 3779TIP3   OH237447   6.202   6.545   2.830  0.5854  0.7215  0.3419
 3779TIP3    H137448   6.189   6.517   2.920  2.5202 -2.6392 -0.2680
 3779TIP3    H237449   6.138   6.494   2.779  0.0061  2.0304 -0.2861
 3780TIP3   OH237450   6.941   7.533   5.968 -0.7576 -0.2381 -0.5649
 3780TIP3    H137451   6.928   7.439   5.978  0.2018 -0.7357 -3.1200
 3780TIP3    H237452   6.900   7.554   5.884  2.1889  0.8428 -1.8725
 3781TIP3   OH237453   1.316   3.477   0.355 -0.0443  0.0995  0.1100
 3781TIP3    H137454   1.250   3.538   0.388 -1.1940 -0.2066 -1.4963
 3781TIP3    H237455   1.340   3.424   0.432 -1.0829  0.7388  0.9068
 3782TIP3   OH237456   7.414   1.126   6.639 -0.7099 -0.0670  0.8113
 3782TIP3    H137457   7.405   1.071   6.562 -0.4800  0.3072  0.5086
 3782TIP3    H237458   7.464   1.202   6.608  0.3816 -0.4475  1.5942
 3783TIP3   OH237459   1.552   3.840   0.986 -0.2154  0.0529  0.5074
 3783TIP3    H137460   1.468   3.798   1.002 -0.4433  0.1459 -0.3993
 3783TIP3    H237461   1.536   3.933   1.004 -0.1387 -0.0158  0.9386
 3784TIP3   OH237462   0.647   2.505   1.392  0.0328 -0.2726 -0.7766
 3784TIP3    H137463   0.566   2.534   1.350 -0.2380 -0.6326 -0.4997
 3784TIP3    H237464   0.690   2.587   1.418 -1.0619 -0.1160  0.6409
 3785TIP3   OH237465   6.401   0.349   5.467  0.1328  0.2854  0.1284
 3785TIP3    H137466   6.421   0.348   5.374  0.6528  0.8272  0.2306
 3785TIP3    H237467   6.334   0.417   5.477 -0.0578  0.1019  0.1325
 3786TIP3   OH237468   6.828   2.652   1.163 -0.6091  0.0614 -0.2763
 3786TIP3    H137469   6.849   2.678   1.253 -0.5833 -2.6584  0.6086
 3786TIP3    H237470   6.764   2.717   1.134 -1.4313  0.4601  2.1273
 3787TIP3   OH237471   5.755   0.870   1.381  0.5752  0.2456 -0.0117
 3787TIP3    H137472   5.780   0.822   1.302 -0.0331  1.3735 -0.9188
 3787TIP3    H237473   5.660   0.876   1.376  0.5789  0.8152  0.5066
 3788TIP3   OH237474   4.271   5.060   0.924 -0.4564 -0.0383 -0.1392
 3788TIP3    H137475   4.228   5.099   0.848 -0.6681  2.2817  1.0697
 3788TIP3    H237476   4.207   5.068   0.995  0.9796  1.1972  1.0969
 3789TIP3   OH237477   2.559   5.926   0.485 -0.3020 -0.0667 -0.2784
 3789TIP3    H137478   2.522   5.863   0.546  0.3873 -1.6693 -1.4333
 3789TIP3    H237479   2.652   5.930   0.506 -0.0952 -0.4783 -1.0599
 3790TIP3   OH237480   0.062   6.605   6.670  0.0518 -0.9366  0.1397
 3790TIP3    H137481   0.066   6.509   6.679  0.9847 -0.9569 -0.3036
 3790TIP3    H237482   0.153   6.630   6.652 -0.5883 -0.2500 -2.5533
 3791TIP3   OH237483   5.021   3.666   1.773 -0.0576  0.0803  0.2817
 3791TIP3    H137484   5.035   3.758   1.794  1.3507  0.6840 -2.6499
 3791TIP3    H237485   4.952   3.637   1.832 -1.4190  3.3623  0.4870
 3792TIP3   OH237486   6.147   5.000   6.732 -0.1118 -0.0220 -0.3851
 3792TIP3    H137487   6.117   4.979   6.820  2.1897  2.2269  1.0666
 3792TIP3    H237488   6.219   5.062   6.745 -0.0438  0.8422 -3.8869
 3793TIP3   OH237489   0.618   8.072   5.101 -0.3541 -0.3445 -0.0482
 3793TIP3    H137490   0.707   8.077   5.137  0.3349  0.0813 -1.7027
 3793TIP3    H237491   0.630   8.034   5.014 -1.5899  1.2545 -0.9766
 3794TIP3   OH237492   7.499   5.335   1.167 -0.3839 -0.4963  0.4341
 3794TIP3    H137493   7.545   5.401   1.115 -1.6536 -0.6587 -0.9752
 3794TIP3    H237494   7.555   5.258   1.162  0.4005  0.0265  0.8790
 3795TIP3   OH237495   5.076   8.053   1.162 -0.9286  0.1542 -0.7017
 3795TIP3    H137496   5.062   8.129   1.219 -1.9409 -1.7009  1.6984
 3795TIP3    H237497   5.166   8.028   1.178 -1.8163 -1.7315  2.0882
 3796TIP3   OH237498   2.765   0.932   0.895 -0.4560 -0.3027  0.7077
 3796TIP3    H137499   2.844   0.893   0.931 -0.0436  0.2183  0.3777
 3796TIP3    H237500   2.787   0.952   0.804 -0.1113  2.0950  1.2418
 3797TIP3   OH237501   2.524   0.109   1.103 -0.2324  0.3708  0.1482
 3797TIP3    H137502   2.566   0.195   1.095 -0.5932  0.4213 -1.5042
 3797TIP3    H237503   2.430   0.128   1.104 -0.3344 -0.0240 -0.8221
 3798TIP3   OH237504   0.394   5.211   0.607  0.1973 -0.3152 -0.1434
 3798TIP3    H137505   0.444   5.252   0.678 -1.6957  0.8157  0.6086
 3798TIP3    H237506   0.445   5.229   0.528  0.9928  0.7576  0.5887
 3799TIP3   OH237507   3.989   3.107   6.357 -0.1987 -0.1369 -0.0270
 3799TIP3    H137508   4.078   3.077   6.335 -0.4020 -0.2107 -0.7933
 3799TIP3    H237509   3.981   3.091   6.451 -0.1840 -2.2548 -0.3287
 3800TIP3   OH237510   6.583   2.926   7.833  0.0673  0.2844 -0.2655
 3800TIP3    H137511   6.604   2.888   7.747 -2.1797 -2.1343  0.1029
 3800TIP3    H237512   6.556   3.016   7.813  1.6817  0.4880 -1.7706
 3801TIP3   OH237513   7.882   2.936   0.504 -0.1281  0.2194 -0.1100
 3801TIP3    H137514   7.917   2.856   0.544 -0.1262 -1.3441 -2.9641
 3801TIP3    H237515   7.959   2.989   0.485  0.9818 -2.4952 -4.8748
 3802TIP3   OH237516   6.139   0.067   2.487 -0.3746  0.0278 -0.0529
 3802TIP3    H137517   6.146   0.160   2.466  0.3396  0.0175  0.1161
 3802TIP3    H237518   6.073   0.063   2.557 -1.4722  0.2430 -1.0494
 3803TIP3   OH237519   0.720   4.147   7.756 -0.4219  0.6025  0.0009
 3803TIP3    H137520   0.739   4.112   7.843 -0.1862 -1.2930 -0.7656
 3803TIP3    H237521   0.785   4.106   7.699 -1.3235  0.8736 -1.2577
 3804TIP3   OH237522   5.100   1.498   0.719  0.2558  0.0049  0.6359
 3804TIP3    H137523   5.192   1.471   0.727  0.3401  0.3407  0.8315
 3804TIP3    H237524   5.083   1.496   0.625  0.4243 -0.1896  0.6082
 3805TIP3   OH237525   1.559   5.855   0.661 -0.3982 -0.0873 -0.6923
 3805TIP3    H137526   1.506   5.814   0.729  0.7987 -1.9845 -0.8197
 3805TIP3    H237527   1.542   5.802   0.583 -0.0041  0.6515 -1.2934
 3806TIP3   OH237528   7.978   6.353   6.508  0.4230 -0.1783 -0.8401
 3806TIP3    H137529   7.899   6.327   6.462  0.1147  0.5491 -0.7351
 3806TIP3    H237530   7.949   6.372   6.597  1.0204 -1.6305 -0.3078
 3807TIP3   OH237531   2.931   4.903   7.674 -0.1847  0.0961  0.8111
 3807TIP3    H137532   3.020   4.935   7.690  0.3319 -1.3433  1.0405
 3807TIP3    H237533   2.927   4.820   7.723 -0.8718 -1.0005 -1.0179
 3808TIP3   OH237534   8.051   2.183   6.378  0.7308  0.3482 -0.0119
 3808TIP3    H137535   8.057   2.278   6.376 -0.5209  0.4289 -0.2720
 3808TIP3    H237536   8.126   2.156   6.432  1.1771  1.4623 -0.0496
 3809TIP3   OH237537   2.188   7.526   6.061 -0.0478 -0.2158 -0.2755
 3809TIP3    H137538   2.166   7.605   6.011 -1.4976  0.0893  0.7580
 3809TIP3    H237539   2.119   7.520   6.127  0.4095 -1.9958  0.0923
 3810TIP3   OH237540   6.063   1.751   1.146  0.0601 -0.0948  0.5226
 3810TIP3    H137541   6.079   1.660   1.169 -0.7839 -0.2555  0.5122
 3810TIP3    H237542   6.122   1.801   1.202  1.0317 -0.6692  0.0362
 3811TIP3   OH237543   6.071   3.069   5.712 -0.4144 -0.7550  0.0618
 3811TIP3    H137544   6.162   3.077   5.740 -0.4140 -0.4040 -0.0425
 3811TIP3    H237545   6.050   3.153   5.672 -0.7402 -0.8859 -0.0469
 3812TIP3   OH237546   2.570   2.037   7.253 -0.1310 -0.2299  0.1814
 3812TIP3    H137547   2.480   2.028   7.287 -0.2431  0.3549  0.0507
 3812TIP3    H237548   2.593   2.128   7.270  0.8302 -0.6337  1.1472
 3813TIP3   OH237549   4.280   4.077   6.820  0.2859 -0.3532  0.1102
 3813TIP3    H137550   4.233   4.160   6.811 -0.8012 -0.6320  2.4409
 3813TIP3    H237551   4.315   4.079   6.909  0.1414 -2.4233  0.2531
 3814TIP3   OH237552   7.319   4.412   0.410 -0.1723  0.5487 -0.2039
 3814TIP3    H137553   7.266   4.333   0.396 -0.1530  0.4745  0.1351
 3814TIP3    H237554   7.330   4.449   0.323  0.4735 -0.2437 -0.4799
 3815TIP3   OH237555   6.325   2.816   7.565  0.2935 -0.4034  0.4389
 3815TIP3    H137556   6.256   2.850   7.621 -0.5655 -1.9854  0.3926
 3815TIP3    H237557   6.319   2.720   7.573  2.0192 -0.6076 -0.1144
 3816TIP3   OH237558   6.137   1.326   7.417  0.4999 -0.3473  0.4874
 3816TIP3    H137559   6.198   1.379   7.469  1.2046 -0.3649 -0.2848
 3816TIP3    H237560   6.051   1.361   7.438  0.7522 -0.4871  1.7942
 3817TIP3   OH237561   4.877   5.907   0.840 -0.5339  0.2613 -0.0916
 3817TIP3    H137562   4.839   5.819   0.843 -2.2568  0.9827  1.8732
 3817TIP3    H237563   4.834   5.954   0.912  2.4277  1.8909  0.7792
 3818TIP3   OH237564   1.345   2.265   7.118 -0.0917  0.0197  0.0473
 3818TIP3    H137565   1.409   2.236   7.053 -0.4724 -1.3738  0.2641
 3818TIP3    H237566   1.262   2.267   7.071 -0.1513  0.2964  0.1616
 3819TIP3   OH237567   0.958   2.791   0.341  0.0739 -0.2980 -0.5328
 3819TIP3    H137568   1.042   2.835   0.353 -0.7837  1.1951  0.3130
 3819TIP3    H237569   0.914   2.841   0.272 -0.7070 -0.1478  0.0658
 3820TIP3   OH237570   5.040   5.972   7.406  0.4911 -0.2757  0.0394
 3820TIP3    H137571   4.972   5.904   7.412 -0.1056 -0.0288 -2.5731
 3820TIP3    H237572   5.112   5.929   7.359  0.2780  0.7030 -1.2489
 3821TIP3   OH237573   3.664   0.413   1.150  0.3566  0.0149  0.2123
 3821TIP3    H137574   3.690   0.469   1.224  0.5522  2.1808 -1.3991
 3821TIP3    H237575   3.730   0.430   1.083  0.7964 -2.7279 -0.1506
 3822TIP3   OH237576   7.359   0.481   7.179  0.6052  0.0667 -0.1633
 3822TIP3    H137577   7.403   0.420   7.120 -1.1343 -1.4969  0.0620
 3822TIP3    H237578   7.326   0.426   7.250  0.0334  1.4690  0.6918
 3823TIP3   OH237579   2.295   7.882   7.132  0.0511  0.6394 -0.0553
 3823TIP3    H137580   2.206   7.863   7.160 -0.2525  0.3176 -1.1706
 3823TIP3    H237581   2.342   7.800   7.143 -0.0813  0.4986 -0.5156
 3824TIP3   OH237582   2.023   1.183   0.036  0.1536 -0.1935 -0.3265
 3824TIP3    H137583   2.068   1.152  -0.043  1.6310 -2.6443  1.3696
 3824TIP3    H237584   1.966   1.110   0.061  0.4194  0.1633  1.3958
 3825TIP3   OH237585   7.234   1.897   0.592 -0.0822 -0.6214 -0.4551
 3825TIP3    H137586   7.260   1.861   0.677 -0.0786  0.5834  0.0712
 3825TIP3    H237587   7.267   1.833   0.529  0.9660 -0.9583  0.3808
 3826TIP3   OH237588   1.634   4.890   1.060 -0.4211  0.8697 -0.1238
 3826TIP3    H137589   1.656   4.921   1.148 -0.0954  0.1030  0.0757
 3826TIP3    H237590   1.713   4.905   1.008  0.1409 -0.6092  0.2500
 3827TIP3   OH237591   7.018   2.864   1.668 -0.0268  0.1310 -0.6199
 3827TIP3    H137592   6.986   2.883   1.756 -0.7734  1.2167 -1.1013
 3827TIP3    H237593   7.081   2.793   1.680  0.2289  0.5740  0.8355
 3828TIP3   OH237594   2.312   4.264   6.869  0.0606  0.3771 -0.1739
 3828TIP3    H137595   2.384   4.237   6.812 -0.6945  0.5695 -1.2548
 3828TIP3    H237596   2.353   4.325   6.931  0.8083  0.5624 -0.8290
 3829TIP3   OH237597   7.308   6.749   6.346 -0.0046 -0.0793  0.2493
 3829TIP3    H137598   7.364   6.694   6.293  0.0250 -0.2244  0.4323
 3829TIP3    H237599   7.287   6.823   6.289 -1.7123 -1.2555 -0.7356
 3830TIP3   OH237600   4.434   0.226   5.969 -0.1490  0.5540 -0.0794
 3830TIP3    H137601   4.341   0.238   5.985 -1.1874 -0.5556 -4.2669
 3830TIP3    H237602   4.443   0.137   5.935  2.4884  0.5884  0.2473
 3831TIP3   OH237603   3.473   3.400   1.550 -0.6444 -0.5113  0.5195
 3831TIP3    H137604   3.397   3.366   1.596 -0.6452 -3.0234 -1.1469
 3831TIP3    H237605   3.476   3.350   1.468  3.0934 -0.9289  0.7359
 3832TIP3   OH237606   4.744   6.321   0.928  0.6885 -0.6550 -0.1916
 3832TIP3    H137607   4.684   6.304   0.856  1.1012  0.3838 -0.8087
 3832TIP3    H237608   4.699   6.385   0.982  0.5116 -1.1996  0.3179
 3833TIP3   OH237609   4.362   6.517   0.675 -0.2204 -0.1679 -0.7108
 3833TIP3    H137610   4.322   6.601   0.698 -0.7401 -0.3382 -0.9921
 3833TIP3    H237611   4.453   6.526   0.702 -0.6788 -0.1667  0.9530
 3834TIP3   OH237612   2.242   3.201   7.434 -0.2680  0.6722 -0.3748
 3834TIP3    H137613   2.263   3.272   7.495 -1.3557  1.7816 -1.2361
 3834TIP3    H237614   2.323   3.185   7.387  0.5193 -0.0111  1.1418
 3835TIP3   OH237615   4.368   2.163   6.843  0.8527 -0.1123 -0.0777
 3835TIP3    H137616   4.426   2.123   6.779  0.2357 -0.7612 -0.2529
 3835TIP3    H237617   4.418   2.236   6.880  0.9082  0.8159 -1.9002
 3836TIP3   OH237618   1.301   2.965   1.830  0.2357 -0.1700 -0.4903
 3836TIP3    H137619   1.210   2.957   1.800 -0.2006  1.8766  0.0767
 3836TIP3    H237620   1.293   2.984   1.924  1.3472 -1.6197 -0.0859
 3837TIP3   OH237621   0.482   0.132   5.259  0.1945  0.1915 -0.0117
 3837TIP3    H137622   0.521   0.062   5.206 -0.8795 -0.6658  0.2804
 3837TIP3    H237623   0.519   0.213   5.224 -0.2898 -0.3633 -1.9276
 3838TIP3   OH237624   6.025   3.337   5.663  0.1070 -0.1922  0.1417
 3838TIP3    H137625   5.973   3.416   5.649  0.1657 -0.2940 -0.7196
 3838TIP3    H237626   6.110   3.368   5.693 -0.1132  0.0306  0.5361
 3839TIP3   OH237627   7.933   7.551   7.046 -0.3933 -1.1246 -0.1511
 3839TIP3    H137628   7.873   7.554   7.121 -0.3274 -0.9283 -0.1065
 3839TIP3    H237629   7.938   7.458   7.024  0.4051 -1.3269  0.7555
 3840TIP3   OH237630   4.319   5.617   6.678  0.4474  0.4723  0.7515
 3840TIP3    H137631   4.372   5.695   6.696 -0.4391  1.1269  0.5785
 3840TIP3    H237632   4.233   5.651   6.653 -0.3661 -0.5726  1.9454
 3841TIP3   OH237633   0.639   7.510   0.946 -0.3790 -0.0726 -0.3763
 3841TIP3    H137634   0.594   7.484   1.026 -1.0679  1.7816 -0.1149
 3841TIP3    H237635   0.656   7.427   0.900 -2.5504 -0.9803  0.3292
 3842TIP3   OH237636   3.166   2.945   7.058 -0.4508 -0.3335 -0.1134
 3842TIP3    H137637   3.189   3.031   7.024 -0.3208  0.0117  0.7976
 3842TIP3    H237638   3.201   2.883   6.995  0.5620  0.2529 -0.1531
 3843TIP3   OH237639   7.197   1.786   0.227  0.2011 -0.2132  0.2850
 3843TIP3    H137640   7.201   1.873   0.266  1.0708  0.4293 -1.1636
 3843TIP3    H237641   7.285   1.770   0.194  0.2256 -1.9248  1.0567
 3844TIP3   OH237642   1.781   0.298   6.370 -0.1503  0.0886  0.2956
 3844TIP3    H137643   1.765   0.216   6.417  1.1264  0.5723  1.6718
 3844TIP3    H237644   1.713   0.357   6.402 -0.0989  0.0192  0.5372
 3845TIP3   OH237645   7.877   5.654   0.690 -0.1052  0.0307 -0.2533
 3845TIP3    H137646   7.936   5.607   0.748 -0.7716  0.1159  0.5099
 3845TIP3    H237647   7.866   5.597   0.614 -0.2739 -0.6801  0.3001
 3846TIP3   OH237648   3.960   4.590   6.959  0.0796 -0.1138 -0.3498
 3846TIP3    H137649   3.879   4.558   6.918 -0.0482 -0.6009  0.2668
 3846TIP3    H237650   3.971   4.678   6.924 -1.0571  0.2013  0.0335
 3847TIP3   OH237651   2.628   3.104   6.034 -0.3062  0.3830  0.7706
 3847TIP3    H137652   2.704   3.073   6.081 -0.2122 -0.1825  0.2546
 3847TIP3    H237653   2.663   3.159   5.963 -0.4018  0.5078  0.8186
 3848TIP3   OH237654   4.329   3.844   1.272 -0.0221  0.4078  0.4190
 3848TIP3    H137655   4.284   3.781   1.216 -0.6507  0.5170  0.7860
 3848TIP3    H237656   4.301   3.821   1.361  2.0799 -0.6918  0.8667
 3849TIP3   OH237657   8.091   4.869   0.387 -0.3656 -0.1998 -0.4444
 3849TIP3    H137658   8.043   4.895   0.308  2.0223  0.5976 -1.7379
 3849TIP3    H237659   8.026   4.871   0.457 -1.5080  4.8896 -1.2471
 3850TIP3   OH237660   7.470   4.450   0.614 -0.4802  0.2768 -0.5208
 3850TIP3    H137661   7.416   4.426   0.538 -1.1433  2.0655 -0.6609
 3850TIP3    H237662   7.549   4.488   0.576 -0.4291  0.3723 -0.3206
 3851TIP3   OH237663   5.664   4.506   7.093  0.4628 -0.4994  0.1955
 3851TIP3    H137664   5.573   4.533   7.093  0.5842 -0.0056  1.8600
 3851TIP3    H237665   5.663   4.418   7.131  0.5984 -0.8341 -0.5646
 3852TIP3   OH237666   7.962   4.253   1.777  0.5283  0.1133 -0.0225
 3852TIP3    H137667   7.985   4.299   1.697  0.5811  1.5217  0.7645
 3852TIP3    H237668   7.970   4.319   1.846  1.1182 -1.2110  1.2439
 3853TIP3   OH237669   3.502   2.689   7.353 -0.6084 -0.2046 -0.0156
 3853TIP3    H137670   3.574   2.674   7.292 -0.4992  0.8550 -0.1604
 3853TIP3    H237671   3.509   2.781   7.377 -2.4340  0.1812 -0.7336
 3854TIP3   OH237672   1.732   7.384   6.517  0.2387  0.0017  0.2983
 3854TIP3    H137673   1.753   7.436   6.594  0.8149  0.3261 -0.0715
 3854TIP3    H237674   1.687   7.445   6.459 -0.5200 -0.3356  0.5225
 3855TIP3   OH237675   7.337   4.615   0.827  0.3474 -0.5508 -0.0892
 3855TIP3    H137676   7.368   4.552   0.762 -0.0785  0.8012 -1.6949
 3855TIP3    H237677   7.295   4.562   0.895  0.1036 -1.9942 -1.3191
 3856TIP3   OH237678   4.246   8.090   1.146  0.0019  0.2006 -0.1935
 3856TIP3    H137679   4.194   8.013   1.168 -1.4116  1.3846  0.8417
 3856TIP3    H237680   4.222   8.155   1.213  1.2577  1.4845 -0.9299
 3857TIP3   OH237681   7.265   0.826   0.079 -0.0223  0.3802 -0.2326
 3857TIP3    H137682   7.338   0.778   0.039  0.4895 -0.0678  1.1925
 3857TIP3    H237683   7.291   0.918   0.071  1.3020  0.1876  1.3013
 3858TIP3   OH237684   6.232   6.848   0.296 -0.0866  0.0042 -0.2598
 3858TIP3    H137685   6.218   6.755   0.277  1.0923 -1.3450  4.2629
 3858TIP3    H237686   6.144   6.882   0.313 -0.2986 -1.4095  1.8542
 3859TIP3   OH237687   6.123   0.753   0.835  0.4659  0.0585 -0.0222
 3859TIP3    H137688   6.094   0.789   0.751  0.3697 -0.4205 -0.1995
 3859TIP3    H237689   6.077   0.806   0.901 -0.1433 -0.1268 -0.2866
 3860TIP3   OH237690   1.453   2.457   6.871  0.1413 -0.3277 -0.6863
 3860TIP3    H137691   1.409   2.501   6.943  1.6180 -1.6455  1.1071
 3860TIP3    H237692   1.501   2.526   6.826  0.4528  0.2945  0.5683
 3861TIP3   OH237693   5.686   6.220   0.498  0.5741  0.0649  0.2856
 3861TIP3    H137694   5.675   6.225   0.593  1.4661  0.3604  0.3829
 3861TIP3    H237695   5.749   6.149   0.485  0.5357  0.0967 -0.0754
 3862TIP3   OH237696   2.011   5.224   6.780 -0.2075 -0.0771  0.1805
 3862TIP3    H137697   2.058   5.270   6.711 -1.2240  0.3409 -0.2508
 3862TIP3    H237698   2.001   5.289   6.850 -2.2680  0.6488 -0.7104
 3863TIP3   OH237699   7.706   7.712   0.548  0.3794  0.3417  0.3455
 3863TIP3    H137700   7.748   7.790   0.585 -1.3775 -0.0224  3.5011
 3863TIP3    H237701   7.634   7.746   0.495 -0.4156  0.9537  1.7520
 3864TIP3   OH237702   0.994   7.070   1.159 -0.1205  0.4621 -0.1137
 3864TIP3    H137703   0.948   7.153   1.144 -0.8587  0.1825  0.4992
 3864TIP3    H237704   1.066   7.093   1.217  0.6123  0.9284 -1.1818
 3865TIP3   OH237705   7.563   4.465   6.519  0.3612 -0.4419  0.0894
 3865TIP3    H137706   7.612   4.538   6.556 -0.0772  0.2196 -0.5843
 3865TIP3    H237707   7.611   4.387   6.546  0.0027 -0.0118  2.1106
 3866TIP3   OH237708   2.108   7.740   5.304  0.5618 -0.3156  0.6377
 3866TIP3    H137709   2.052   7.805   5.261  1.4014  0.5160  0.7513
 3866TIP3    H237710   2.060   7.658   5.297 -0.0907  0.1319 -0.3787
 3867TIP3   OH237711   4.256   0.045   0.875  0.1844 -0.0360  0.5804
 3867TIP3    H137712   4.214  -0.027   0.827  3.0605 -1.6223  0.2205
 3867TIP3    H237713   4.261   0.013   0.965  1.4192 -0.2770  0.4328
 3868TIP3   OH237714   4.496   6.210   7.058 -0.0271 -0.0196 -0.2670
 3868TIP3    H137715   4.444   6.213   7.138 -0.9726  0.7272 -0.8868
 3868TIP3    H237716   4.454   6.274   6.999  0.8244 -0.3300 -1.2477
 3869TIP3   OH237717   4.927   1.755   1.125 -0.1533  0.4848  0.0971
 3869TIP3    H137718   4.981   1.759   1.046  0.7411  1.1123  0.7224
 3869TIP3    H237719   4.892   1.843   1.135 -1.2408  0.1051 -0.2495
 3870TIP3   OH237720   3.212   5.055   6.418  0.1740 -0.4386  0.3945
 3870TIP3    H137721   3.146   5.099   6.472  0.3570 -0.8698  0.9757
 3870TIP3    H237722   3.162   5.014   6.347 -0.1188 -0.2628  0.4986
 3871TIP3   OH237723   8.044   2.710   0.606 -0.3708 -0.2256  0.5728
 3871TIP3    H137724   7.981   2.655   0.559  1.0269 -0.8419 -0.6310
 3871TIP3    H237725   8.077   2.654   0.676 -0.1367 -0.3808  0.3402
 3872TIP3   OH237726   8.013   2.793   6.721  0.2715 -0.4225 -0.1395
 3872TIP3    H137727   8.098   2.831   6.701  0.4299 -0.1178  0.9929
 3872TIP3    H237728   8.011   2.790   6.817 -0.8179 -0.8223 -0.1638
 3873TIP3   OH237729   1.042   5.742   7.197 -0.7057  0.2609 -0.0179
 3873TIP3    H137730   1.090   5.743   7.280 -0.1572  0.0097 -0.3284
 3873TIP3    H237731   0.950   5.744   7.223 -0.5388  0.9817  0.5846
 3874TIP3   OH237732   1.456   4.259   7.323 -0.0445 -0.2197 -0.2410
 3874TIP3    H137733   1.523   4.235   7.258 -1.5739 -1.7892 -1.3058
 3874TIP3    H237734   1.506   4.275   7.403  1.8054  0.7372 -1.4979
 3875TIP3   OH237735   3.233   4.595   5.791 -0.2933 -0.0194 -0.6444
 3875TIP3    H137736   3.190   4.515   5.759 -1.3491  0.3215 -0.1405
 3875TIP3    H237737   3.205   4.663   5.730  0.6322 -0.0327 -1.0928
 3876TIP3   OH237738   3.576   4.256   6.514 -0.5113  0.2661  0.3220
 3876TIP3    H137739   3.656   4.258   6.566  0.7197  1.3324 -1.4703
 3876TIP3    H237740   3.521   4.325   6.551  0.5335  1.3198 -0.0606
 3877TIP3   OH237741   1.936   6.677   0.294  0.2579 -0.2907 -0.3593
 3877TIP3    H137742   1.975   6.617   0.231  1.4855  0.2919 -0.1909
 3877TIP3    H237743   1.953   6.764   0.258 -0.4966  0.0030 -0.0368
 3878TIP3   OH237744   6.622   3.975   0.058 -0.0852 -0.7127  0.1847
 3878TIP3    H137745   6.589   4.001  -0.029 -1.4196  1.2429  1.1985
 3878TIP3    H237746   6.545   3.939   0.102  0.0494  0.2931  1.2717
 3879TIP3   OH237747   3.037   1.085   1.488  0.1051 -0.2745  0.4832
 3879TIP3    H137748   3.103   1.018   1.470  0.2367  0.0316 -0.1878
 3879TIP3    H237749   3.003   1.109   1.402 -0.3979  0.0643  0.7716
 3880TIP3   OH237750   7.700   1.939   6.884 -0.0263  0.7156 -0.1533
 3880TIP3    H137751   7.633   1.968   6.948  0.2803 -0.6512  0.8222
 3880TIP3    H237752   7.783   1.961   6.926  0.1718  0.6482 -0.5122
 3881TIP3   OH237753   7.165   5.426   6.490 -0.4475  0.0349 -0.1310
 3881TIP3    H137754   7.145   5.425   6.397 -0.0031 -1.3331 -0.2373
 3881TIP3    H237755   7.112   5.357   6.528 -0.1534  0.1535  0.5276
 3882TIP3   OH237756   2.705   5.713   0.777 -0.2248  0.4995 -0.0200
 3882TIP3    H137757   2.742   5.675   0.697 -2.1412 -0.2380 -0.6236
 3882TIP3    H237758   2.775   5.706   0.842  2.0290  2.6399 -1.9704
 3883TIP3   OH237759   7.088   5.418   6.912 -0.7142 -0.0013 -0.3563
 3883TIP3    H137760   7.170   5.464   6.934  0.5300 -1.3910 -1.8944
 3883TIP3    H237761   7.044   5.477   6.851 -0.6225  0.5381  0.0912
 3884TIP3   OH237762   1.174   6.865   0.067 -0.2792  0.9184  0.1322
 3884TIP3    H137763   1.245   6.910   0.114  0.7574 -0.4165 -0.1028
 3884TIP3    H237764   1.161   6.784   0.116 -0.8916  0.6439 -0.4795
 3885TIP3   OH237765   1.149   2.998   7.589 -0.2747  0.2549  0.4531
 3885TIP3    H137766   1.178   2.979   7.500 -0.3292 -0.9549  0.6854
 3885TIP3    H237767   1.225   3.037   7.632  1.0985 -2.7758  1.0289
 3886TIP3   OH237768   5.909   4.922   0.614 -0.1107  0.6511  0.1702
 3886TIP3    H137769   5.979   4.913   0.549  1.8191 -0.5661  2.2600
 3886TIP3    H237770   5.857   4.843   0.605 -0.4428  0.9402 -0.5078
 3887TIP3   OH237771   3.134   5.710   1.222 -0.2104 -0.1978 -0.1405
 3887TIP3    H137772   3.115   5.770   1.294 -0.0939  0.7252 -0.8567
 3887TIP3    H237773   3.191   5.643   1.261 -2.4877 -1.4048  1.3289
 3888TIP3   OH237774   4.735   3.615   7.039  0.1512 -0.1273  0.3279
 3888TIP3    H137775   4.740   3.631   7.133  2.1932  0.3925  0.1835
 3888TIP3    H237776   4.796   3.679   7.000 -0.3250 -0.6081 -1.3002
 3889TIP3   OH237777   8.084   0.972   0.573  0.0626  0.2013  0.1718
 3889TIP3    H137778   8.174   0.943   0.589  0.7725  2.1998  0.2183
 3889TIP3    H237779   8.088   1.067   0.587 -1.9808  0.3810 -0.2213
 3890TIP3   OH237780   1.818   3.472   0.833  0.4604 -0.4828  0.2615
 3890TIP3    H137781   1.801   3.428   0.917 -1.2729 -2.3219 -0.9599
 3890TIP3    H237782   1.765   3.552   0.837 -1.9869 -1.9724 -0.1212
 3891TIP3   OH237783   3.382   1.900   0.366  0.2336  0.3750  0.1362
 3891TIP3    H137784   3.419   1.843   0.298  2.5311  1.5802  0.2472
 3891TIP3    H237785   3.383   1.847   0.445 -0.0908 -0.2402 -0.2656
 3892TIP3   OH237786   2.990   0.574   6.478  0.1386 -0.3509 -0.0620
 3892TIP3    H137787   3.055   0.640   6.502 -1.6618  0.1852  4.1947
 3892TIP3    H237788   2.916   0.624   6.444  0.6281 -0.7084 -1.7572
 3893TIP3   OH237789   1.691   6.528   2.275  0.2262 -0.3991 -0.4102
 3893TIP3    H137790   1.758   6.594   2.262 -1.7728  1.7304 -0.6268
 3893TIP3    H237791   1.645   6.555   2.355 -2.1594 -0.0479 -1.8020
 3894TIP3   OH237792   4.359   0.390   1.152 -0.4091 -0.3259  0.7812
 3894TIP3    H137793   4.401   0.385   1.238 -0.2626  1.6731  0.8751
 3894TIP3    H237794   4.432   0.390   1.090 -0.4771 -0.8231  0.6941
 3895TIP3   OH237795   3.676   2.567   6.330  0.0775  0.2984 -0.6296
 3895TIP3    H137796   3.640   2.489   6.286 -1.1029  2.1324 -3.1776
 3895TIP3    H237797   3.601   2.626   6.339  1.4571  2.2984 -1.5427
 3896TIP3   OH237798   3.935   3.862   0.881  0.2893 -0.3184 -0.5089
 3896TIP3    H137799   3.841   3.869   0.864  0.0838 -2.5019 -0.5525
 3896TIP3    H237800   3.957   3.773   0.855  2.0517 -0.3958  1.0526
 3897TIP3   OH237801   0.007   5.899   0.716  0.1747 -0.0756 -0.3230
 3897TIP3    H137802  -0.070   5.909   0.773  1.8562  0.5111  1.9825
 3897TIP3    H237803   0.025   5.987   0.684  0.9924  0.1712  0.7443
 3898TIP3   OH237804   7.415   1.389   6.054  0.4655  0.1649 -0.4686
 3898TIP3    H137805   7.379   1.363   6.139 -1.4290  2.0032 -0.6340
 3898TIP3    H237806   7.340   1.420   6.004  1.9192  1.6784 -1.8468
 3899TIP3   OH237807   1.670   6.239   2.304  0.5483 -0.0665 -0.3980
 3899TIP3    H137808   1.608   6.215   2.235 -0.8383 -1.8918  1.3646
 3899TIP3    H237809   1.682   6.333   2.294 -0.2688 -0.1305 -2.5510
 3900TIP3   OH237810   7.288   1.713   7.254 -0.8284 -0.0960 -0.6222
 3900TIP3    H137811   7.212   1.701   7.197 -2.0526 -0.4755  0.9880
 3900TIP3    H237812   7.321   1.624   7.268 -0.1369  0.0614 -1.2545
 3901TIP3   OH237813   5.227   5.018   1.689  0.7563 -0.2364  0.0934
 3901TIP3    H137814   5.140   4.980   1.674  1.3347 -2.3353  1.5409
 3901TIP3    H237815   5.214   5.081   1.760  0.4665 -0.9386  0.6805
 3902TIP3   OH237816   1.840   2.446   0.287  0.2922 -0.2241  0.1672
 3902TIP3    H137817   1.898   2.470   0.360 -0.8211 -0.0900  1.0415
 3902TIP3    H237818   1.836   2.350   0.290 -1.3052 -0.1713  1.6005
 3903TIP3   OH237819   6.628   6.514   6.245 -0.0731 -0.0913 -0.0217
 3903TIP3    H137820   6.718   6.484   6.260  0.7182  1.6527 -1.0629
 3903TIP3    H237821   6.593   6.452   6.181  1.2523  0.6378 -1.5073
 3904TIP3   OH237822   8.059   7.987   6.874  0.6237 -0.3722 -0.4525
 3904TIP3    H137823   8.082   7.953   6.960 -0.7842  1.1846  0.5811
 3904TIP3    H237824   8.136   8.037   6.847  0.9470 -0.5983  0.0269
 3905TIP3   OH237825   6.648   2.728   7.117 -0.6228 -0.1216 -0.4501
 3905TIP3    H137826   6.699   2.809   7.111 -0.6328 -0.0962 -0.1826
 3905TIP3    H237827   6.560   2.753   7.089 -1.1152  0.4004  1.4543
 3906TIP3   OH237828   3.119   4.317   5.754 -0.3416  0.3229  0.5897
 3906TIP3    H137829   3.158   4.340   5.669 -1.1372  1.0876  0.4165
 3906TIP3    H237830   3.048   4.257   5.733 -0.7943  0.8225  0.6700
 3907TIP3   OH237831   0.831   4.501   0.363  0.9890 -0.3557 -0.4734
 3907TIP3    H137832   0.889   4.450   0.306 -0.2781 -1.2683 -0.9786
 3907TIP3    H237833   0.883   4.579   0.385  1.6508 -0.1155 -2.6120
 3908TIP3   OH237834   4.170   3.614   6.188 -0.1414 -0.3516 -0.5223
 3908TIP3    H137835   4.242   3.606   6.126  0.1446  2.5276 -0.6644
 3908TIP3    H237836   4.112   3.680   6.150 -1.6011 -0.8183  0.7879
 3909TIP3   OH237837   4.158   1.978   7.355 -0.2418  0.6878 -0.4699
 3909TIP3    H137838   4.186   1.889   7.373  2.3510  1.7955  1.5973
 3909TIP3    H237839   4.169   1.988   7.261  1.0975 -0.6585 -0.4883
 3910TIP3   OH237840   2.078   1.465   0.691  0.6658  0.8136 -0.2190
 3910TIP3    H137841   2.089   1.371   0.708  0.9907  0.4578 -2.1534
 3910TIP3    H237842   2.046   1.469   0.601 -2.2695  2.4598  0.7683
 3911TIP3   OH237843   2.214   0.199   0.315  0.1674 -0.6766  0.0073
 3911TIP3    H137844   2.288   0.191   0.374  0.2816  0.8131  0.0842
 3911TIP3    H237845   2.220   0.287   0.279 -2.4821  0.1057  1.2697
 3912TIP3   OH237846   2.602   7.072   1.261  0.6095 -0.3323  0.2509
 3912TIP3    H137847   2.603   6.983   1.226  1.5155 -0.4304  0.4924
 3912TIP3    H237848   2.684   7.111   1.230  0.5177  0.2077  0.6719
 3913TIP3   OH237849   5.825   0.235   6.272 -0.0611 -0.7978 -0.0873
 3913TIP3    H137850   5.795   0.231   6.362  1.0343 -0.2858  0.3154
 3913TIP3    H237851   5.793   0.320   6.240  2.5968  0.7241  0.9944
 3914TIP3   OH237852   7.371   6.898   6.705 -0.7353  0.1561 -0.9787
 3914TIP3    H137853   7.438   6.849   6.657  0.3215  0.5768  0.0239
 3914TIP3    H237854   7.310   6.927   6.637  0.8006  0.8690 -2.1260
 3915TIP3   OH237855   1.858   5.975   0.565  0.1694  0.2708  0.1965
 3915TIP3    H137856   1.835   6.046   0.624 -1.2900 -1.0074  1.2514
 3915TIP3    H237857   1.947   5.950   0.591  0.8611  1.9011 -0.4523
 3916TIP3   OH237858   2.004   1.074   5.653 -0.0140 -0.0949 -0.0744
 3916TIP3    H137859   1.941   1.117   5.710 -1.8962 -0.5319 -1.7323
 3916TIP3    H237860   2.090   1.100   5.688 -1.0685  0.5246  2.2353
 3917TIP3   OH237861   1.168   3.213   6.980  0.1815 -0.0525  0.3167
 3917TIP3    H137862   1.226   3.259   7.041 -0.6974 -0.7835  1.7413
 3917TIP3    H237863   1.204   3.125   6.974 -0.5803 -0.4153  0.9563
 3918TIP3   OH237864   2.907   5.805   7.515 -0.2454  0.2955  0.1756
 3918TIP3    H137865   3.000   5.795   7.531 -0.1360 -0.8025 -0.9695
 3918TIP3    H237866   2.880   5.722   7.475 -1.8402  0.3454  1.0256
 3919TIP3   OH237867   7.895   7.699   0.354  0.3071 -0.0457 -0.1269
 3919TIP3    H137868   7.832   7.712   0.424  0.3995  0.5976 -0.1573
 3919TIP3    H237869   7.857   7.744   0.278  0.1992 -0.7459 -0.5040
 3920TIP3   OH237870   0.541   3.370   6.308  0.0095 -0.1277  0.6822
 3920TIP3    H137871   0.461   3.423   6.302  0.5130  0.9086  2.2626
 3920TIP3    H237872   0.556   3.338   6.219 -1.1092  1.2509 -0.0422
 3921TIP3   OH237873   0.837   2.945   7.683  0.1183  0.8064 -0.3812
 3921TIP3    H137874   0.783   2.959   7.761  0.6885  0.6025  0.0583
 3921TIP3    H237875   0.912   3.003   7.695  1.1691 -0.6151  0.1568
 3922TIP3   OH237876   1.596   3.571   0.560 -0.4023  0.0562 -0.3707
 3922TIP3    H137877   1.603   3.584   0.655 -0.5498  0.0663 -0.3605
 3922TIP3    H237878   1.539   3.494   0.551  0.3152 -0.4804 -0.4311
 3923TIP3   OH237879   4.718   3.314   6.721  0.1097  0.0488 -0.4182
 3923TIP3    H137880   4.699   3.312   6.814 -1.1404  0.2614 -0.6429
 3923TIP3    H237881   4.773   3.392   6.709 -0.4236  0.5065  0.0319
 3924TIP3   OH237882   6.007   0.914   7.273  0.6103 -0.2299 -0.2285
 3924TIP3    H137883   6.049   0.862   7.204  1.6989  0.6380 -0.2638
 3924TIP3    H237884   5.917   0.883   7.276  0.4591 -0.0995 -2.2520
 3925TIP3   OH237885   2.706   4.602   0.366 -0.0007 -0.0979  0.1210
 3925TIP3    H137886   2.611   4.613   0.359  0.0073 -0.6638 -1.3618
 3925TIP3    H237887   2.729   4.546   0.292  1.2282 -1.7611  1.6738
 3926TIP3   OH237888   0.542   2.759   1.017 -0.6535 -0.1659  0.4695
 3926TIP3    H137889   0.469   2.815   1.043 -1.2110 -0.7403  0.1558
 3926TIP3    H237890   0.542   2.687   1.080  0.0651  0.1803  0.8748
 3927TIP3   OH237891   7.485   7.476   6.029 -0.1345 -0.5589 -0.2432
 3927TIP3    H137892   7.496   7.548   5.967  1.0509  1.8235  2.5244
 3927TIP3    H237893   7.527   7.401   5.986  1.4726  1.1990 -1.9174
 3928TIP3   OH237894   4.121   0.600   1.318  0.3950  0.4892  0.1034
 3928TIP3    H137895   4.099   0.563   1.403  0.8480 -3.0398 -1.1463
 3928TIP3    H237896   4.150   0.525   1.266  1.4289  2.6991 -2.7669
 3929TIP3   OH237897   0.788   6.558   1.258  0.2733  0.5303  0.0446
 3929TIP3    H137898   0.748   6.645   1.270  1.3805  0.9340  0.9317
 3929TIP3    H237899   0.749   6.525   1.177 -0.3120  1.7767 -0.2026
 3930TIP3   OH237900   3.098   3.091   1.877 -0.0395 -0.4036 -0.0024
 3930TIP3    H137901   3.043   3.097   1.799 -0.2768  1.1415  0.2632
 3930TIP3    H237902   3.049   3.136   1.945  0.0552 -1.9278  1.1408
 3931TIP3   OH237903   7.184   3.707   0.730 -0.0327  0.3053  0.3623
 3931TIP3    H137904   7.101   3.662   0.710  0.3246 -0.9180  1.4789
 3931TIP3    H237905   7.187   3.709   0.826  0.8304  1.1368  0.3301
 3932TIP3   OH237906   2.527   3.058   2.215 -0.6129  0.3819 -0.0327
 3932TIP3    H137907   2.590   3.060   2.144 -0.2393 -0.2583  0.2709
 3932TIP3    H237908   2.571   3.100   2.289 -0.7103  0.3497  0.0452
 3933TIP3   OH237909   0.434   2.939   5.918 -0.0645 -0.1430 -1.1043
 3933TIP3    H137910   0.506   2.901   5.868 -0.9658 -2.1951 -0.9262
 3933TIP3    H237911   0.366   2.872   5.919 -0.7431  0.4440  1.4392
 3934TIP3   OH237912   1.901   6.012   0.071  0.0173  0.0168  0.4897
 3934TIP3    H137913   1.968   6.055   0.125  0.7706 -0.1157 -0.3214
 3934TIP3    H237914   1.937   6.013  -0.017 -0.0402 -2.0691  0.4037
 3935TIP3   OH237915   3.594   5.592   1.853 -0.5062  0.2074 -0.1421
 3935TIP3    H137916   3.563   5.638   1.932 -1.2220  0.6209 -0.6509
 3935TIP3    H237917   3.678   5.633   1.834  0.8178 -1.4389  1.6883
 3936TIP3   OH237918   0.244   5.918   1.412  0.0764 -0.2585  0.6192
 3936TIP3    H137919   0.198   5.939   1.330 -1.7000  0.8626  1.8352
 3936TIP3    H237920   0.314   5.858   1.385 -1.7857 -1.6872 -1.4454
 3937TIP3   OH237921   1.268   5.115   0.135 -0.1293  0.3972 -0.0328
 3937TIP3    H137922   1.183   5.158   0.143  0.0808  0.7647  0.2729
 3937TIP3    H237923   1.320   5.174   0.079  1.3159  2.4372  3.1307
 3938TIP3   OH237924   7.364   1.508   1.064  0.0789 -0.2935 -0.2570
 3938TIP3    H137925   7.396   1.545   0.982  0.0868  0.2330 -0.0185
 3938TIP3    H237926   7.354   1.583   1.122 -0.2691 -0.6217  0.1122
 3939TIP3   OH237927   2.234   5.646   6.509  0.5470  0.1448 -0.1422
 3939TIP3    H137928   2.259   5.693   6.588  0.7814  1.6349 -1.0676
 3939TIP3    H237929   2.216   5.714   6.444 -1.1778 -0.9944 -0.9470
 3940TIP3   OH237930   0.192   4.805   0.178  0.0401 -0.0923  0.2550
 3940TIP3    H137931   0.275   4.775   0.141 -0.0628  0.1554 -0.1826
 3940TIP3    H237932   0.211   4.822   0.270  0.7294  0.8927 -0.0529
 3941TIP3   OH237933   2.406   0.191   1.685 -0.9279 -1.0235  0.1293
 3941TIP3    H137934   2.404   0.239   1.768 -3.5136  0.9542 -0.9680
 3941TIP3    H237935   2.360   0.109   1.704  1.6436 -2.3017  1.4553
 3942TIP3   OH237936   3.993   3.616   7.804  0.6287  0.2640  0.3353
 3942TIP3    H137937   3.983   3.697   7.754  1.0948 -0.1177 -0.3980
 3942TIP3    H237938   3.903   3.590   7.826  0.4667  0.8586  0.3892
 3943TIP3   OH237939   5.959   2.012   0.980  0.1013 -0.4108  0.5697
 3943TIP3    H137940   5.981   2.099   1.013 -0.2011 -0.5508  1.1617
 3943TIP3    H237941   6.043   1.970   0.962  0.3093 -0.6554  2.0330
 3944TIP3   OH237942   1.661   1.813   1.616 -0.0794 -0.0313 -0.0842
 3944TIP3    H137943   1.687   1.800   1.707 -0.5535  1.7954  0.3291
 3944TIP3    H237944   1.703   1.740   1.570  0.8030 -0.5594  1.4638
 3945TIP3   OH237945   0.042   5.044   1.998 -0.5954  0.0357 -0.2489
 3945TIP3    H137946   0.077   5.093   1.924 -0.9676  0.1443 -0.3537
 3945TIP3    H237947   0.099   4.967   2.005 -0.9598 -0.3203 -1.0680
 3946TIP3   OH237948   0.569   1.143   7.152  0.1996  0.5101 -0.2656
 3946TIP3    H137949   0.632   1.091   7.102 -0.8987 -1.0067 -0.1637
 3946TIP3    H237950   0.557   1.094   7.233 -0.6561  1.0787 -0.0392
 3947TIP3   OH237951   0.016   7.466   6.815 -0.2987  0.1724  0.1584
 3947TIP3    H137952   0.051   7.473   6.904  0.7328 -0.1812 -0.2131
 3947TIP3    H237953   0.058   7.536   6.766 -1.1885  0.6345  0.0431
 3948TIP3   OH237954   1.134   1.994   6.344 -0.6962  0.4092  0.4944
 3948TIP3    H137955   1.097   1.913   6.380  1.0702 -0.8294 -0.3194
 3948TIP3    H237956   1.075   2.018   6.272 -0.4391 -1.0710 -0.2577
 3949TIP3   OH237957   6.439   6.918   1.078  0.3301  0.1425  0.1886
 3949TIP3    H137958   6.516   6.974   1.091  0.9435 -1.0324  1.9118
 3949TIP3    H237959   6.423   6.879   1.163 -0.9204 -1.2536 -0.6375
 3950TIP3   OH237960   3.402   2.690   6.646 -0.3824  0.4264 -0.3914
 3950TIP3    H137961   3.333   2.728   6.700 -0.1590 -1.6541  1.5158
 3950TIP3    H237962   3.356   2.636   6.582 -0.5581  1.1046 -0.8604
 3951TIP3   OH237963   5.301   8.034   6.606 -0.8423  0.2926 -0.1400
 3951TIP3    H137964   5.383   8.082   6.609 -0.9061  0.4596 -0.7808
 3951TIP3    H237965   5.326   7.944   6.588 -0.8112  0.4245 -0.8115
 3952TIP3   OH237966   7.429   8.106   0.808 -0.0494 -0.3412 -0.0050
 3952TIP3    H137967   7.399   8.034   0.864 -0.5325 -0.1868 -0.0626
 3952TIP3    H237968   7.453   8.176   0.869 -0.5917 -0.1667  0.0164
 3953TIP3   OH237969   1.964   6.650   6.479 -0.6954  0.0821  0.0083
 3953TIP3    H137970   2.051   6.668   6.445 -0.6800 -1.4015 -0.8453
 3953TIP3    H237971   1.940   6.728   6.529  1.3605  0.2701  0.7797
 3954TIP3   OH237972   6.110   3.137   7.800 -0.0669  0.2278 -0.1888
 3954TIP3    H137973   6.125   3.188   7.721  1.4016  1.1658  0.6386
 3954TIP3    H237974   6.135   3.048   7.776  1.7940  0.7646 -0.4387
 3955TIP3   OH237975   3.795   5.826   0.240 -0.1210 -0.0958  0.3575
 3955TIP3    H137976   3.839   5.911   0.250 -0.0445 -0.1064  0.1371
 3955TIP3    H237977   3.866   5.763   0.238 -0.0130  0.0107 -1.4250
 3956TIP3   OH237978   2.449   4.102   1.262  0.3758 -0.5565  0.3747
 3956TIP3    H137979   2.455   4.190   1.300 -1.4572 -0.7007  1.0550
 3956TIP3    H237980   2.376   4.107   1.200 -0.4189 -1.8464  1.1644
 3957TIP3   OH237981   1.543   7.448   0.668  0.6122 -0.3311 -0.5252
 3957TIP3    H137982   1.570   7.357   0.678  0.2564 -0.5521 -1.4834
 3957TIP3    H237983   1.448   7.447   0.683  0.9474  0.3418  2.1918
 3958TIP3   OH237984   7.475   5.240   0.558 -0.5499 -0.3447 -0.3563
 3958TIP3    H137985   7.502   5.323   0.518 -0.1623 -1.1261 -1.7777
 3958TIP3    H237986   7.460   5.262   0.651 -1.7612  1.5964 -0.9421
 3959TIP3   OH237987   0.262   6.963   0.137  0.0297  0.0665 -0.0861
 3959TIP3    H137988   0.316   7.030   0.179  0.9420 -0.9862  0.4581
 3959TIP3    H237989   0.215   6.922   0.209  1.7893 -1.9159  0.0240
 3960TIP3   OH237990   4.532   2.612   0.044 -0.4592  0.4936 -0.5473
 3960TIP3    H137991   4.553   2.687   0.099 -0.0105  0.0159 -0.0494
 3960TIP3    H237992   4.486   2.551   0.102 -0.8771  0.4087 -0.9592
 3961TIP3   OH237993   2.773   5.424   0.728  0.3709 -0.0691  0.0229
 3961TIP3    H137994   2.816   5.343   0.698 -0.5054 -0.2791 -0.7180
 3961TIP3    H237995   2.750   5.470   0.647  0.5421  0.7607  0.4374
 3962TIP3   OH237996   4.948   5.455   6.154 -0.1083 -0.2338  0.0536
 3962TIP3    H137997   4.967   5.497   6.238  0.1348  0.5351 -0.3841
 3962TIP3    H237998   4.933   5.527   6.093 -1.2150 -0.7873 -0.3635
 3963TIP3   OH237999   5.485   3.350   7.145 -0.1349 -0.1747  0.4583
 3963TIP3    H138000   5.502   3.444   7.133  0.0786 -0.1903  0.6445
 3963TIP3    H238001   5.396   3.347   7.182  0.1808  0.0000  1.2589
 3964TIP3   OH238002   5.330   1.841   1.324 -0.3887  0.4390 -0.1075
 3964TIP3    H138003   5.290   1.870   1.242 -0.5381 -0.9790 -0.5678
 3964TIP3    H238004   5.422   1.827   1.303 -0.0608  1.7193  0.4227
 3965TIP3   OH238005   5.208   3.303   7.200 -0.1258  0.1483  0.2342
 3965TIP3    H138006   5.152   3.380   7.193  1.2801  1.3153  1.3634
 3965TIP3    H238007   5.228   3.279   7.110  0.6272  2.0437 -0.1399
 3966TIP3   OH238008   8.002   7.614   7.783  0.1213  0.0011 -0.3054
 3966TIP3    H138009   8.086   7.579   7.753  0.6624 -0.4211  1.5759
 3966TIP3    H238010   7.957   7.539   7.822 -1.2481  0.1787 -1.4536
 3967TIP3   OH238011   7.237   5.882   6.759  0.3472 -0.1228 -0.4231
 3967TIP3    H138012   7.201   5.801   6.724  2.0431 -0.6622 -1.0520
 3967TIP3    H238013   7.285   5.920   6.686  1.7407  0.0983  0.5528
 3968TIP3   OH238014   3.962   5.229   1.488 -0.0341  0.6370 -0.0144
 3968TIP3    H138015   4.038   5.276   1.452  0.1894 -0.2727 -0.7732
 3968TIP3    H238016   3.906   5.298   1.524  1.6035  1.2634  1.4844
 3969TIP3   OH238017   3.330   1.043   0.530 -0.4248  0.3420  0.0277
 3969TIP3    H138018   3.288   1.126   0.508  1.6224  1.6713  0.7416
 3969TIP3    H238019   3.320   1.035   0.625 -1.1915 -0.5838 -0.1243
 3970TIP3   OH238020   2.571   7.326   1.808 -0.1457 -0.5745  0.4050
 3970TIP3    H138021   2.616   7.315   1.724 -0.8567  2.0851 -0.4239
 3970TIP3    H238022   2.626   7.387   1.857  0.1895 -1.9972  1.8793
 3971TIP3   OH238023   1.807   4.127   0.407  0.5851  0.3767  0.3203
 3971TIP3    H138024   1.845   4.065   0.468 -0.0346  0.2943  0.6282
 3971TIP3    H238025   1.744   4.177   0.459 -1.0212 -0.6579 -0.5369
 3972TIP3   OH238026   1.588   6.642   0.836 -0.5837 -0.4289  0.4592
 3972TIP3    H138027   1.633   6.719   0.870 -0.6577 -0.5536  0.8414
 3972TIP3    H238028   1.608   6.642   0.742 -2.8269  1.6082 -0.0952
 3973TIP3   OH238029   6.165   3.534   7.619  0.3359 -0.1844 -0.0467
 3973TIP3    H138030   6.164   3.524   7.714  2.1248 -0.2069  0.0091
 3973TIP3    H238031   6.105   3.606   7.602 -0.5821 -0.6660  1.0201
 3974TIP3   OH238032   7.972   1.144   1.598  0.1058 -0.1057  0.3158
 3974TIP3    H138033   8.064   1.117   1.592  0.6526  1.6421  0.4971
 3974TIP3    H238034   7.959   1.162   1.691  0.5138  2.6666 -0.0992
 3975TIP3   OH238035   0.887   5.987   6.700 -0.3375 -0.2453 -0.1053
 3975TIP3    H138036   0.891   6.028   6.786  0.8854 -1.6179  0.5392
 3975TIP3    H238037   0.796   5.996   6.673 -0.8904 -0.3237  1.6135
 3976TIP3   OH238038   5.157   1.333   0.991  0.0279 -0.3153  0.0151
 3976TIP3    H138039   5.202   1.312   0.909 -0.5803 -1.5162 -0.0418
 3976TIP3    H238040   5.085   1.271   0.994  0.6195 -0.9694  1.9415
 3977TIP3   OH238041   2.651   0.545   6.910 -0.4510  0.4371 -0.0250
 3977TIP3    H138042   2.638   0.533   7.004 -1.6824  1.8663  0.0343
 3977TIP3    H238043   2.696   0.466   6.881 -1.4132 -0.7314  1.5062
 3978TIP3   OH238044   2.018   6.344   7.786  0.2987 -0.3295  0.2196
 3978TIP3    H138045   2.081   6.375   7.721 -0.1717  1.3588  0.5154
 3978TIP3    H238046   2.011   6.250   7.770  1.7973 -0.3130 -0.7537
 3979TIP3   OH238047   5.708   7.257   6.366  0.1332  0.1280 -0.3519
 3979TIP3    H138048   5.703   7.171   6.325 -1.0849 -1.2042  2.3521
 3979TIP3    H238049   5.648   7.311   6.316 -1.7822 -1.6004 -0.0422
 3980TIP3   OH238050   4.397   6.239   1.018  0.3898 -0.1578  0.3991
 3980TIP3    H138051   4.329   6.198   0.964 -0.5026  0.5296  0.9709
 3980TIP3    H238052   4.465   6.172   1.026 -0.2829 -0.9120 -0.0727
 3981TIP3   OH238053   0.147   2.535   6.786 -0.3362  0.3727 -0.0124
 3981TIP3    H138054   0.239   2.558   6.801  0.3895 -0.9189 -2.1662
 3981TIP3    H238055   0.134   2.547   6.692 -2.6107  1.2047  0.3370
 3982TIP3   OH238056   7.773   3.017   7.046  0.3754  0.0971 -0.2108
 3982TIP3    H138057   7.702   2.956   7.065 -1.7579  2.9020  1.4552
 3982TIP3    H238058   7.770   3.030   6.952  0.0215 -1.3026 -0.4098
 3983TIP3   OH238059   0.889   4.691   7.862 -0.8677  0.0586  0.4015
 3983TIP3    H138060   0.847   4.699   7.948  0.3820  0.2356  1.0092
 3983TIP3    H238061   0.956   4.624   7.874  0.4290  1.2459  0.0268
 3984TIP3   OH238062   6.857   6.538   2.437 -0.0490 -0.6590 -0.0768
 3984TIP3    H138063   6.896   6.477   2.374 -0.3951 -0.9831  0.0180
 3984TIP3    H238064   6.929   6.563   2.494  0.9054  1.5769 -2.0452
 3985TIP3   OH238065   2.168   5.826   6.966 -0.1878 -1.0199 -0.5359
 3985TIP3    H138066   2.096   5.783   7.012 -0.3585 -1.2016 -0.9750
 3985TIP3    H238067   2.247   5.789   7.006 -0.2307  1.4657  2.2033
 3986TIP3   OH238068   4.888   3.407   5.572  0.2673  0.2993 -0.2859
 3986TIP3    H138069   4.936   3.371   5.647  0.3149  0.8364 -0.0546
 3986TIP3    H238070   4.951   3.406   5.500  0.5676  0.8241 -0.0322
 3987TIP3   OH238071   7.723   1.652   0.354  0.7625  0.8856 -0.4472
 3987TIP3    H138072   7.666   1.680   0.426  0.4486  0.0562 -0.3594
 3987TIP3    H238073   7.796   1.607   0.396  1.1190  1.3134 -0.5985
 3988TIP3   OH238074   0.398   4.325   5.692  0.3298  0.9248 -0.2915
 3988TIP3    H138075   0.439   4.405   5.723  1.0428  0.3372  0.3359
 3988TIP3    H238076   0.471   4.266   5.672 -0.0654 -0.8484  2.7271
 3989TIP3   OH238077   4.704   2.239   1.590  0.0676 -0.1587  0.5346
 3989TIP3    H138078   4.768   2.309   1.598 -1.0071  0.8958  0.3002
 3989TIP3    H238079   4.690   2.230   1.495 -0.2147 -0.2962  0.5888
 3990TIP3   OH238080   3.141   5.952   0.485  0.6103 -0.1721  0.2143
 3990TIP3    H138081   3.226   5.908   0.492  1.0190  0.5629 -0.0452
 3990TIP3    H238082   3.150   6.030   0.539 -0.1140 -0.3857  0.6655
 3991TIP3   OH238083   6.933   2.804   6.830  0.1094 -0.6447 -0.4226
 3991TIP3    H138084   6.870   2.775   6.897  0.0823 -2.2832 -1.1127
 3991TIP3    H238085   6.983   2.873   6.873 -1.5092  0.0331  0.4672
 3992TIP3   OH238086   7.501   3.105   6.730  0.2861 -0.5170 -0.2107
 3992TIP3    H138087   7.494   3.026   6.676  0.9331 -1.0836  0.5155
 3992TIP3    H238088   7.430   3.096   6.794 -1.5313  0.9335 -1.8805
 3993TIP3   OH238089   1.508   1.399   7.330  0.2905  0.3254 -0.6909
 3993TIP3    H138090   1.466   1.373   7.412  0.2897  3.1353  0.3303
 3993TIP3    H238091   1.442   1.452   7.285  1.1760  1.0123 -1.2295
 3994TIP3   OH238092   0.955   0.550   0.490 -0.5260  0.7102 -0.3013
 3994TIP3    H138093   0.927   0.606   0.418  0.4240  1.8445  0.1896
 3994TIP3    H238094   0.894   0.569   0.561  0.4270  1.9493  0.2176
 3995TIP3   OH238095   7.430   6.330   1.436 -0.1612 -0.2425  0.4275
 3995TIP3    H138096   7.424   6.401   1.372  0.4791 -0.0146  0.6133
 3995TIP3    H238097   7.393   6.366   1.516 -0.3796 -0.3173  0.3610
 3996TIP3   OH238098   4.838   7.527   0.862 -1.2214 -0.1555 -0.5348
 3996TIP3    H138099   4.876   7.480   0.937 -0.7113  0.4606 -0.4014
 3996TIP3    H238100   4.823   7.616   0.895  0.6615  0.6296 -1.6781
 3997TIP3   OH238101   3.410   5.172   7.522 -0.4351  0.2316  0.1161
 3997TIP3    H138102   3.441   5.095   7.570 -0.1513  0.3900  0.1829
 3997TIP3    H238103   3.338   5.138   7.468  1.5706 -0.7264 -2.1381
 3998TIP3   OH238104   1.867   0.604   7.313 -0.5733 -0.2021  0.4633
 3998TIP3    H138105   1.780   0.575   7.284 -0.4381  0.3826 -0.5819
 3998TIP3    H238106   1.921   0.526   7.312 -0.8528 -0.3902  0.2025
 3999TIP3   OH238107   7.330   2.780   6.729 -0.3350 -0.7351 -0.3774
 3999TIP3    H138108   7.378   2.748   6.653 -0.6001 -0.3549 -0.7129
 3999TIP3    H238109   7.359   2.725   6.802  1.2447  0.0372 -0.3831
 4000TIP3   OH238110   4.893   0.618   7.421  0.1334  0.2214  0.2827
 4000TIP3    H138111   4.895   0.563   7.343 -1.4266 -0.2066  0.4964
 4000TIP3    H238112   4.800   0.623   7.444  0.5109  0.7233  1.8419
 4001TIP3   OH238113   3.320   4.633   0.129  0.0915  0.1558 -0.6004
 4001TIP3    H138114   3.349   4.565   0.069 -0.4446  0.0934 -0.7940
 4001TIP3    H238115   3.378   4.626   0.204  1.0423  0.5101 -1.2900
 4002TIP3   OH238116   0.578   3.191   6.512  0.5439  0.3078 -0.7047
 4002TIP3    H138117   0.575   3.271   6.460  0.0027  1.0804  0.4746
 4002TIP3    H238118   0.671   3.170   6.519  0.7686  1.4352 -0.1368
 4003TIP3   OH238119   1.953   7.576   0.099 -0.0938 -0.1057 -0.5203
 4003TIP3    H138120   1.991   7.490   0.080 -1.5376 -0.9199  0.0969
 4003TIP3    H238121   1.870   7.577   0.050  0.0305  1.0589 -0.7380
 4004TIP3   OH238122   2.628   6.175   7.386 -0.0163  0.8800 -0.2283
 4004TIP3    H138123   2.707   6.228   7.376 -0.0444  1.3499  1.6665
 4004TIP3    H238124   2.585   6.178   7.301  1.0113  2.2573 -0.7152
 4005TIP3   OH238125   0.299   3.223   1.228 -0.3770  0.5568 -0.5960
 4005TIP3    H138126   0.296   3.303   1.281  1.6038  1.5891 -1.9022
 4005TIP3    H238127   0.249   3.159   1.278  0.0034  1.9277  1.6872
 4006TIP3   OH238128   6.284   5.793   6.692  0.0743 -0.3562 -0.5253
 4006TIP3    H138129   6.270   5.722   6.754 -0.7468 -0.7286 -1.1211
 4006TIP3    H238130   6.312   5.867   6.746 -0.9044 -0.5857  0.3254
 4007TIP3   OH238131   3.077   1.403   7.945 -0.2758 -0.3970 -0.9670
 4007TIP3    H138132   3.001   1.429   7.894 -0.3978 -0.3420 -0.7597
 4007TIP3    H238133   3.049   1.411   8.036 -1.3758 -4.1148 -0.8207
 4008TIP3   OH238134   2.405   2.781   2.006  0.8973  0.0272  0.1824
 4008TIP3    H138135   2.352   2.756   1.930  2.5128 -2.9081 -0.0979
 4008TIP3    H238136   2.352   2.755   2.082  1.3058 -1.6782 -0.0787
 4009TIP3   OH238137   4.963   1.834   0.540  0.7872  0.3501 -0.0475
 4009TIP3    H138138   4.886   1.790   0.574  2.4167 -2.6642  0.0817
 4009TIP3    H238139   4.930   1.889   0.469 -1.3118 -2.3322 -1.3071
 4010TIP3   OH238140   0.481   1.322   7.755  0.2880 -0.1547  0.1879
 4010TIP3    H138141   0.565   1.293   7.790 -0.8113 -2.6569  0.9860
 4010TIP3    H238142   0.447   1.247   7.707 -1.2468  0.9776 -0.5928
 4011TIP3   OH238143   7.180   4.646   7.151  0.2905  0.3396 -0.0880
 4011TIP3    H138144   7.149   4.556   7.150  0.5881  0.2307  0.2357
 4011TIP3    H238145   7.136   4.686   7.226 -1.5072  1.0752 -1.4730
 4012TIP3   OH238146   4.295   0.854   7.529 -0.1504  0.7211 -0.4608
 4012TIP3    H138147   4.294   0.924   7.595 -2.7138 -0.2060  0.6043
 4012TIP3    H238148   4.369   0.877   7.472  1.6152  2.0796  2.1452
 4013TIP3   OH238149   0.194   6.898   7.225 -0.0299  0.2121 -0.0873
 4013TIP3    H138150   0.172   6.913   7.317  2.4904  0.3191  0.5574
 4013TIP3    H238151   0.161   6.810   7.207 -0.3187  0.0828  1.0012
 4014TIP3   OH238152   1.404   0.224   6.368 -0.1198 -0.2008 -0.6284
 4014TIP3    H138153   1.316   0.229   6.406  0.5192 -0.8513  1.0349
 4014TIP3    H238154   1.445   0.307   6.391 -0.8833  0.9549 -3.1047
 4015TIP3   OH238155   7.797   1.167   0.902 -0.3645 -0.1267 -0.3020
 4015TIP3    H138156   7.784   1.165   0.807 -1.0802 -0.2672 -0.2085
 4015TIP3    H238157   7.792   1.260   0.925  1.6531  0.1008 -0.6256
 4016TIP3   OH238158   3.487   6.326   1.187  0.1208 -0.1675 -0.8506
 4016TIP3    H138159   3.476   6.329   1.282 -2.5224  3.1653 -1.0621
 4016TIP3    H238160   3.566   6.377   1.170 -0.5077  1.0016 -0.4340
 4017TIP3   OH238161   7.632   1.494   2.494  0.3118 -0.1068  0.1390
 4017TIP3    H138162   7.660   1.403   2.502  0.8451  0.0438 -0.0311
 4017TIP3    H238163   7.682   1.529   2.421  0.4486  0.4493  0.4898
 4018TIP3   OH238164   2.576   0.624   7.928 -0.6906  0.3721 -0.5074
 4018TIP3    H138165   2.574   0.554   7.994 -0.4583  0.2956 -0.5816
 4018TIP3    H238166   2.665   0.622   7.894 -1.1629 -0.4802 -1.7725
 4019TIP3   OH238167   5.676   6.153   5.586 -0.2791  0.2236  0.7207
 4019TIP3    H138168   5.618   6.095   5.538 -0.1033 -0.3921  1.2363
 4019TIP3    H238169   5.739   6.095   5.628  0.7608  0.8817  0.1198
 4020TIP3   OH238170   0.036   2.053   5.536  0.5386 -0.3504 -0.2226
 4020TIP3    H138171  -0.017   2.028   5.460  0.9900  0.5164 -0.8322
 4020TIP3    H238172   0.001   2.138   5.562  1.7395  0.3127 -0.7365
 4021TIP3   OH238173   4.615   2.302   2.125  0.3776  0.3517 -0.0021
 4021TIP3    H138174   4.580   2.387   2.154  1.1372  0.5026  0.4862
 4021TIP3    H238175   4.548   2.239   2.149 -1.9100  1.1292 -3.4891
 4022TIP3   OH238176   5.411   5.733   5.274  0.4884  0.2572  0.2182
 4022TIP3    H138177   5.329   5.698   5.239  0.7572 -0.7546  0.5752
 4022TIP3    H238178   5.480   5.684   5.229  0.9587  1.7724 -0.8030
 4023TIP3   OH238179   0.851   7.115   5.883  0.0262 -0.1697  0.1151
 4023TIP3    H138180   0.770   7.107   5.833  0.3624 -0.0605 -0.4491
 4023TIP3    H238181   0.903   7.039   5.856  0.2239 -0.0898  0.2704
 4024TIP3   OH238182   1.665   6.974   5.750 -0.1500 -0.2502 -0.5409
 4024TIP3    H138183   1.622   7.026   5.818  0.2379  0.1010 -0.5599
 4024TIP3    H238184   1.757   6.970   5.777  0.0323 -0.0093 -1.1047
 4025TIP3   OH238185   5.032   0.680   2.556  0.0332 -0.6677  0.6896
 4025TIP3    H138186   5.005   0.758   2.604  0.5646 -0.2971  0.3957
 4025TIP3    H238187   4.959   0.660   2.498  0.4051  0.3898 -0.1802
 4026TIP3   OH238188   2.923   3.376   0.254  0.3257  0.1791  0.6339
 4026TIP3    H138189   2.865   3.431   0.201  0.7447  0.4159  0.4173
 4026TIP3    H238190   2.869   3.301   0.279  0.3411 -0.3256 -0.7708
 4027TIP3   OH238191   2.652   7.983   0.976  0.0601  0.3924  0.0253
 4027TIP3    H138192   2.724   7.981   1.040  1.8279  2.4957 -1.7514
 4027TIP3    H238193   2.587   8.042   1.014 -0.1504 -0.4233  1.0002
 4028TIP3   OH238194   4.761   5.086   2.315  0.0451 -0.1215 -0.1674
 4028TIP3    H138195   4.696   5.027   2.276 -1.1518  1.0294  0.0229
 4028TIP3    H238196   4.718   5.171   2.319  1.3874  0.5717  0.4645
 4029TIP3   OH238197   3.699   3.609   6.535 -1.0876  0.3166  0.5235
 4029TIP3    H138198   3.766   3.563   6.485 -1.5745  0.0110  0.1476
 4029TIP3    H238199   3.636   3.639   6.470 -0.1771  2.5820  0.6156
 4030TIP3   OH238200   6.360   5.631   7.581  0.3065 -0.2621 -0.0661
 4030TIP3    H138201   6.416   5.563   7.544  0.9601  0.1563  0.1313
 4030TIP3    H238202   6.419   5.683   7.636 -0.6589 -0.8981  1.6305
 4031TIP3   OH238203   6.165   6.044   1.218 -0.4048 -0.3282 -0.3209
 4031TIP3    H138204   6.108   6.102   1.269 -0.8081 -1.0929  0.1148
 4031TIP3    H238205   6.215   5.996   1.284 -2.8150 -3.2810 -0.4367
 4032TIP3   OH238206   0.336   3.723   6.018  0.4332 -0.1966  0.2937
 4032TIP3    H138207   0.295   3.762   5.942  1.7047 -0.9016 -0.7979
 4032TIP3    H238208   0.429   3.720   5.997  0.5385 -2.8444  0.7060
 4033TIP3   OH238209   6.950   1.579   1.903  0.1712 -0.1941  0.7493
 4033TIP3    H138210   6.862   1.544   1.918  0.1373 -1.3346 -1.5685
 4033TIP3    H238211   6.984   1.528   1.829  2.8048  0.2182  1.5520
 4034TIP3   OH238212   4.640   0.948   2.003  0.0198 -0.2186  0.0364
 4034TIP3    H138213   4.728   0.914   2.018 -0.0079 -0.0545  0.6235
 4034TIP3    H238214   4.587   0.871   1.985 -0.1067 -0.5585  1.6663
 4035TIP3   OH238215   6.935   5.235   2.393  0.2160  0.2207 -0.4917
 4035TIP3    H138216   6.856   5.271   2.434  0.5500  0.2315  0.1547
 4035TIP3    H238217   6.902   5.165   2.337 -0.1218 -1.1750  1.3422
 4036TIP3   OH238218   3.303   5.476   7.011 -0.5027  0.3196  0.8089
 4036TIP3    H138219   3.277   5.566   6.994  0.4435  0.8011  1.8302
 4036TIP3    H238220   3.349   5.479   7.095  2.9943 -0.4108 -0.8906
 4037TIP3   OH238221   7.387   4.652   6.623  0.0930  0.0833  0.1810
 4037TIP3    H138222   7.389   4.728   6.565  1.6208  0.6790  0.9372
 4037TIP3    H238223   7.428   4.582   6.573  0.7039  0.3865  0.2421
 4038TIP3   OH238224   5.766   3.857   1.243  0.1393 -0.6424 -0.6481
 4038TIP3    H138225   5.794   3.937   1.288  1.5459 -1.0710 -0.7038
 4038TIP3    H238226   5.806   3.786   1.293 -1.8355 -1.3955 -0.0614
 4039TIP3   OH238227   2.399   1.067   6.215  0.4700 -0.6122 -0.0665
 4039TIP3    H138228   2.330   1.028   6.161 -1.3231  1.1431  0.8088
 4039TIP3    H238229   2.451   0.993   6.245  0.6150 -1.7663 -2.9105
 4040TIP3   OH238230   6.145   0.943   6.466 -0.1611 -0.4636  0.0551
 4040TIP3    H138231   6.058   0.952   6.427 -0.0730  0.8270  0.0986
 4040TIP3    H238232   6.132   0.968   6.558  0.1061 -1.0681  0.2629
 4041TIP3   OH238233   3.251   3.656   0.321 -0.1900 -0.6122  0.0627
 4041TIP3    H138234   3.289   3.584   0.271  1.2599  0.4885 -0.5028
 4041TIP3    H238235   3.229   3.722   0.254 -0.7056 -0.1953  0.6357
 4042TIP3   OH238236   7.491   6.635   6.181  0.3591  0.2690  0.7108
 4042TIP3    H138237   7.552   6.565   6.205  0.5925  1.2538  3.2940
 4042TIP3    H238238   7.548   6.711   6.163  0.0037  0.4666  0.4030
 4043TIP3   OH238239   4.119   4.630   6.561 -0.1032  0.4617  0.6310
 4043TIP3    H138240   4.094   4.722   6.576 -1.7407  0.1637 -0.0109
 4043TIP3    H238241   4.140   4.627   6.467 -0.0398  0.1897  0.6543
 4044TIP3   OH238242   0.845   6.166   6.332  0.1778 -0.1232  0.4561
 4044TIP3    H138243   0.790   6.122   6.397  0.9875 -1.9989 -0.0696
 4044TIP3    H238244   0.839   6.259   6.355 -3.4595 -0.1529  0.2302
 4045TIP3   OH238245   0.637   7.840   7.249  0.9616  0.2767  0.1166
 4045TIP3    H138246   0.628   7.782   7.324 -1.5513  0.1893 -0.1582
 4045TIP3    H238247   0.700   7.796   7.192 -0.5496 -2.0237  0.1023
 4046TIP3   OH238248   7.348   8.094   6.717 -0.0663  0.4500  0.3711
 4046TIP3    H138249   7.284   8.156   6.752 -2.4758 -1.2525 -0.7834
 4046TIP3    H238250   7.344   8.019   6.777  0.0316 -0.1204 -0.3219
 4047TIP3   OH238251   3.982   4.191   7.090  0.0779  0.4009  0.5782
 4047TIP3    H138252   4.042   4.262   7.066  1.0331 -0.5040  0.1860
 4047TIP3    H238253   3.970   4.200   7.184  1.8982 -0.1659  0.8960
 4048TIP3   OH238254   3.225   0.525   6.293 -0.2714  0.1662  0.6576
 4048TIP3    H138255   3.151   0.518   6.353 -0.9745 -0.1142 -0.2231
 4048TIP3    H238256   3.288   0.460   6.325 -0.7187 -0.1194  0.9704
 4049TIP3   OH238257   8.106   7.270   1.768 -0.3591 -0.0596  0.4869
 4049TIP3    H138258   8.159   7.347   1.746  0.2980 -0.5697  0.2487
 4049TIP3    H238259   8.164   7.196   1.752 -1.2682 -0.6552 -0.1017
 4050TIP3   OH238260   4.170   7.401   1.362 -0.7951  0.1961 -0.3810
 4050TIP3    H138261   4.167   7.414   1.457 -1.0635  1.0356 -0.4959
 4050TIP3    H238262   4.142   7.485   1.325  0.4793  0.2807 -1.2249
 4051TIP3   OH238263   2.120   2.048   7.755  0.3143  0.1766  0.2294
 4051TIP3    H138264   2.102   2.080   7.844 -1.1118 -0.4301  0.1802
 4051TIP3    H238265   2.066   2.104   7.699 -1.2638 -1.4610  0.0381
 4052TIP3   OH238266   7.410   5.831   0.339 -0.7237 -0.3963  0.6485
 4052TIP3    H138267   7.493   5.784   0.330 -1.0514 -0.9426  0.4521
 4052TIP3    H238268   7.432   5.923   0.320 -0.2429 -0.5974  0.2119
 4053TIP3   OH238269   0.184   8.109   6.856  0.0855  0.4767  0.4335
 4053TIP3    H138270   0.185   8.091   6.950 -0.0219 -0.8941  0.2056
 4053TIP3    H238271   0.200   8.203   6.849  1.3107  0.4162  1.7829
 4054TIP3   OH238272   7.615   7.435   6.887 -0.1039 -0.7097  0.0552
 4054TIP3    H138273   7.606   7.370   6.817 -0.9406  0.0893 -0.6068
 4054TIP3    H238274   7.625   7.383   6.967 -0.0750 -1.6463 -0.5405
 4055TIP3   OH238275   4.794   0.165   7.297  0.5963 -0.1637 -0.2554
 4055TIP3    H138276   4.706   0.192   7.325  0.5614  3.4340 -3.1673
 4055TIP3    H238277   4.778   0.093   7.235 -0.1475 -0.4623  0.2649
 4056TIP3   OH238278   5.278   2.795   7.280  0.4300 -0.0477 -0.0599
 4056TIP3    H138279   5.358   2.752   7.310  1.3477  0.6091 -1.4613
 4056TIP3    H238280   5.239   2.831   7.360  0.9764 -1.2550  0.7824
 4057TIP3   OH238281   2.588   8.006   5.573 -0.2243  0.3160 -0.0289
 4057TIP3    H138282   2.609   8.020   5.665 -1.2610  0.9543  0.1286
 4057TIP3    H238283   2.492   8.001   5.570 -0.2292  0.6938 -1.1189
 4058TIP3   OH238284   5.326   3.832   7.767  0.3084 -0.0900  0.2055
 4058TIP3    H138285   5.310   3.866   7.679 -1.0612  1.1361  0.8916
 4058TIP3    H238286   5.382   3.899   7.808 -0.2087  0.0444  0.7019
 4059TIP3   OH238287   1.963   0.101   6.931 -0.0548  0.0512 -0.6467
 4059TIP3    H138288   1.979   0.155   6.853  2.4271 -0.3171 -0.4937
 4059TIP3    H238289   2.004   0.017   6.910 -0.9507 -0.6719  0.3901
 4060TIP3   OH238290   7.358   0.172   1.500 -0.0284  0.0750 -0.1879
 4060TIP3    H138291   7.269   0.150   1.474 -0.1757 -0.5792  0.8025
 4060TIP3    H238292   7.404   0.089   1.504  0.2573  0.2560  0.5935
 4061TIP3   OH238293   4.556   3.788   6.535 -0.4634  0.2062 -0.2547
 4061TIP3    H138294   4.527   3.729   6.466 -4.1240  0.6024  0.7525
 4061TIP3    H238295   4.577   3.730   6.609 -0.1293 -0.0061 -0.5105
 4062TIP3   OH238296   6.960   7.619   7.930 -0.2552  0.3960 -0.4492
 4062TIP3    H138297   7.031   7.683   7.933  1.6465 -1.5789 -0.8887
 4062TIP3    H238298   6.909   7.636   8.010  2.1911  0.3018  1.2367
 4063TIP3   OH238299   0.068   5.984   1.588  0.5948 -0.1340 -0.3976
 4063TIP3    H138300   0.125   5.944   1.522 -0.4879 -1.8130 -0.3867
 4063TIP3    H238301   0.090   5.937   1.669  0.6933  0.7031  0.0694
 4064TIP3   OH238302   1.939   6.261   6.301  0.0015 -0.2981  0.1241
 4064TIP3    H138303   1.907   6.172   6.309  0.8681 -0.4740  2.2671
 4064TIP3    H238304   1.930   6.282   6.207 -2.2638 -1.8053 -0.0767
 4065TIP3   OH238305   5.456   2.920   6.890  0.4680  0.4508 -0.0261
 4065TIP3    H138306   5.512   2.884   6.821  1.6913  1.0968  0.5826
 4065TIP3    H238307   5.497   3.004   6.912  0.2195  0.1891  1.5881
 4066TIP3   OH238308   4.668   0.861   7.856 -0.2180  0.0838 -0.2381
 4066TIP3    H138309   4.580   0.832   7.832 -0.1926  0.1591 -0.4305
 4066TIP3    H238310   4.718   0.851   7.775 -0.4374  1.5705 -0.5820
 4067TIP3   OH238311   5.422   4.153   2.100  0.4345  0.2619 -0.3349
 4067TIP3    H138312   5.456   4.138   2.012  1.3832  1.9076 -0.2954
 4067TIP3    H238313   5.349   4.214   2.088 -0.7850 -1.1149 -0.1465
 4068TIP3   OH238314   5.771   4.691   0.869 -0.1903  0.2510 -0.2619
 4068TIP3    H138315   5.741   4.686   0.778  0.2626 -3.6866 -0.3678
 4068TIP3    H238316   5.845   4.751   0.866 -1.0362  1.2953 -2.1970
 4069TIP3   OH238317   0.956   3.415   1.005 -0.4585  0.0301  0.1382
 4069TIP3    H138318   0.919   3.329   1.024  0.8121 -0.7011 -0.6118
 4069TIP3    H238319   1.050   3.403   1.012 -0.2564  1.3734  0.0351
 4070TIP3   OH238320   7.699   2.344   2.292  1.0049 -0.1570  0.3357
 4070TIP3    H138321   7.708   2.296   2.209 -0.0587 -0.5514  0.4391
 4070TIP3    H238322   7.641   2.290   2.345 -0.4956  1.3752  0.3493
 4071TIP3   OH238323   4.818   5.617   5.976 -0.2369 -0.0323 -0.0681
 4071TIP3    H138324   4.775   5.575   5.902 -0.9847  1.5908 -0.6178
 4071TIP3    H238325   4.751   5.619   6.045  0.5738 -1.8675  0.8231
 4072TIP3   OH238326   2.817   1.830   0.827 -0.5976  0.2271  0.3302
 4072TIP3    H138327   2.792   1.864   0.913 -1.5133 -0.2222  0.2530
 4072TIP3    H238328   2.849   1.907   0.779 -1.0691  0.6731  0.7251
 4073TIP3   OH238329   6.503   1.004   1.568  0.0978 -0.2165  0.5316
 4073TIP3    H138330   6.559   0.956   1.629  1.1445  1.6798  1.1304
 4073TIP3    H238331   6.508   1.095   1.596 -2.8355  0.1606  0.2243
 4074TIP3   OH238332   0.066   7.242   6.489 -0.2646 -0.3112  0.2210
 4074TIP3    H138333  -0.001   7.309   6.475 -0.0641 -0.1305  0.1231
 4074TIP3    H238334   0.017   7.162   6.506 -0.5034  0.0019  1.0265
 4075TIP3   OH238335   3.501   3.146   1.249  0.2888  0.1121  0.0324
 4075TIP3    H138336   3.567   3.089   1.212 -1.0926 -0.2790 -2.0137
 4075TIP3    H238337   3.438   3.159   1.178  0.0127  3.3709  0.7042
 4076TIP3   OH238338   1.722   2.990   1.750 -0.2976  0.0286  0.4713
 4076TIP3    H138339   1.703   2.994   1.844  0.5794  0.3742  0.6440
 4076TIP3    H238340   1.804   2.941   1.745 -0.9140 -0.9740 -0.2096
 4077TIP3   OH238341   1.109   0.094   1.583 -0.2717 -0.1099 -0.1405
 4077TIP3    H138342   1.158   0.175   1.598 -0.0637 -0.2698  0.0347
 4077TIP3    H238343   1.130   0.071   1.492  0.8022 -0.7320  0.2411
 4078TIP3   OH238344   0.725   5.123   6.879  0.1908  0.3965 -0.2311
 4078TIP3    H138345   0.780   5.125   6.958  0.6641  0.0632 -0.5506
 4078TIP3    H238346   0.642   5.161   6.908  0.4141  0.4346  0.3887
 4079TIP3   OH238347   4.621   4.268   0.502  0.0121  0.2753 -0.6860
 4079TIP3    H138348   4.535   4.245   0.537  0.3701  0.7720  0.5918
 4079TIP3    H238349   4.630   4.361   0.521 -0.2903  0.9071 -3.3075
 4080TIP3   OH238350   5.920   2.828   6.515 -0.8564 -0.5192  0.2689
 4080TIP3    H138351   6.003   2.826   6.562 -0.0566 -1.5130 -1.1209
 4080TIP3    H238352   5.942   2.858   6.427 -2.2713  0.9722  0.3592
 4081TIP3   OH238353   6.296   5.627   2.561  0.0899  0.5310  0.7355
 4081TIP3    H138354   6.228   5.560   2.557  0.7548 -0.2009  1.5137
 4081TIP3    H238355   6.337   5.615   2.646 -0.2693  2.4293  1.2092
 4082TIP3   OH238356   0.965   0.551   6.349 -0.7047 -0.4982 -0.2623
 4082TIP3    H138357   0.985   0.611   6.276 -0.2599 -0.4405 -0.0946
 4082TIP3    H238358   0.916   0.480   6.308 -2.3925  0.5965 -0.2679
 4083TIP3   OH238359   2.681   3.718   0.686 -0.2136 -0.3875 -0.8358
 4083TIP3    H138360   2.719   3.701   0.772 -0.5564 -0.8811 -0.7782
 4083TIP3    H238361   2.750   3.692   0.624  0.7846  1.7578 -0.7219
 4084TIP3   OH238362   7.553   7.668   1.536 -0.0642 -0.1317  0.4102
 4084TIP3    H138363   7.609   7.619   1.475  0.0189  0.6294 -0.1448
 4084TIP3    H238364   7.610   7.735   1.572 -0.7471  1.0534 -0.6364
 4085TIP3   OH238365   4.600   4.640   6.421 -0.1864 -0.0173  0.3414
 4085TIP3    H138366   4.677   4.688   6.452 -0.5466  0.6284  0.2410
 4085TIP3    H238367   4.531   4.664   6.483 -0.7471  0.7717 -0.5639
 4086TIP3   OH238368   7.646   0.773   6.189 -0.1645  0.3025  0.3013
 4086TIP3    H138369   7.567   0.797   6.238 -0.0573  1.9492 -0.2646
 4086TIP3    H238370   7.639   0.679   6.176 -1.5278  0.2656  1.1371
 4087TIP3   OH238371   6.895   7.447   7.397 -0.7557 -0.4387  0.8126
 4087TIP3    H138372   6.846   7.365   7.393 -1.7444  0.1674 -2.5446
 4087TIP3    H238373   6.841   7.510   7.349  0.1822  2.1360  2.8617
 4088TIP3   OH238374   3.990   7.890   7.585  0.0474 -0.0251  0.6179
 4088TIP3    H138375   3.908   7.870   7.540 -0.2755 -0.2649  1.3110
 4088TIP3    H238376   4.056   7.841   7.536 -0.5283 -1.6240  1.3711
 4089TIP3   OH238377   8.067   4.783   7.663  0.0489  0.2410  0.0015
 4089TIP3    H138378   8.017   4.782   7.745 -1.2362  0.2465 -0.7560
 4089TIP3    H238379   8.110   4.698   7.659 -0.2199  0.0837  0.4735
 4090TIP3   OH238380   0.166   6.029   6.316  0.3346  0.1002  0.0898
 4090TIP3    H138381   0.109   5.961   6.353 -1.6395  2.0898  0.9291
 4090TIP3    H238382   0.133   6.043   6.228  0.3118  0.4164  0.1479
 4091TIP3   OH238383   4.662   4.307   7.852  0.3275  0.7460 -0.0462
 4091TIP3    H138384   4.636   4.386   7.899 -0.1136  0.0745  0.8683
 4091TIP3    H238385   4.685   4.244   7.920  0.5928  0.0503 -0.7515
 4092TIP3   OH238386   3.610   2.928   7.855 -0.1821 -0.9476 -0.4461
 4092TIP3    H138387   3.688   2.906   7.803 -0.1861  0.1150 -0.9399
 4092TIP3    H238388   3.582   2.845   7.892 -0.5498 -1.9015 -2.6793
 4093TIP3   OH238389   4.849   4.245   2.276  0.1726 -0.0192  0.0197
 4093TIP3    H138390   4.825   4.237   2.368 -2.0135  2.7651 -0.1643
 4093TIP3    H238391   4.939   4.277   2.277 -0.2938  1.3410  1.2767
 4094TIP3   OH238392   0.628   3.029   1.576  0.1637  0.0666  0.1957
 4094TIP3    H138393   0.625   3.044   1.482  0.6943 -5.2613 -1.0060
 4094TIP3    H238394   0.718   3.052   1.601  0.3237  0.6066 -0.8252
 4095TIP3   OH238395   2.706   7.302   7.708 -0.4994  0.0336 -0.1917
 4095TIP3    H138396   2.714   7.333   7.618  1.5532  0.3340  0.0627
 4095TIP3    H238397   2.704   7.207   7.701 -0.6276  0.0630 -0.5554
 4096TIP3   OH238398   2.219   6.891   5.949  0.6121 -0.1501  0.4938
 4096TIP3    H138399   2.139   6.893   6.002  0.0139  0.6268 -0.3923
 4096TIP3    H238400   2.268   6.816   5.981  0.1560  0.1492  1.9709
 4097TIP3   OH238401   6.591   4.687   1.421  0.1626 -0.2734  0.3795
 4097TIP3    H138402   6.580   4.608   1.367  1.0820  0.2616 -0.6288
 4097TIP3    H238403   6.645   4.659   1.494 -0.0999 -0.7321  0.4065
 4098TIP3   OH238404   4.857   4.555   2.309  0.5216  0.4139 -0.1607
 4098TIP3    H138405   4.799   4.492   2.266 -1.5268  2.9701 -1.4271
 4098TIP3    H238406   4.866   4.521   2.398 -2.8942 -0.2544  0.0862
 4099TIP3   OH238407   7.766   5.122   7.132  0.3065 -0.0062 -0.2726
 4099TIP3    H138408   7.843   5.152   7.085 -0.1357  2.4287  0.4225
 4099TIP3    H238409   7.712   5.079   7.066  1.2306  0.3127 -1.2508
 4100TIP3   OH238410   7.999   5.293   7.156  0.1233 -0.8549  0.2847
 4100TIP3    H138411   7.986   5.351   7.081 -0.4708 -1.4240 -0.0601
 4100TIP3    H238412   8.081   5.247   7.136  1.4813  0.9687  1.3070
 4101TIP3   OH238413   8.096   7.862   7.841 -0.0820 -0.3166  0.1798
 4101TIP3    H138414   8.043   7.787   7.814 -0.0264 -1.1800  2.3040
 4101TIP3    H238415   8.042   7.907   7.906  0.1530  1.1519 -0.6027
 4102TIP3   OH238416   0.034   2.879   7.633 -0.4463  0.2522  0.1101
 4102TIP3    H138417   0.092   2.813   7.672  1.0690  1.1898 -0.4836
 4102TIP3    H238418   0.078   2.962   7.649 -2.0303  1.0808  0.2953
 4103TIP3   OH238419   5.262   5.302   0.663  0.6226  0.0383  0.2333
 4103TIP3    H138420   5.280   5.230   0.723  0.6929  1.9360  2.6472
 4103TIP3    H238421   5.341   5.310   0.609 -0.0317 -2.6763 -1.3069
 4104TIP3   OH238422   1.156   2.721   7.841 -0.6314  0.5338 -0.2322
 4104TIP3    H138423   1.092   2.699   7.773  0.1076 -0.0523 -0.7529
 4104TIP3    H238424   1.176   2.638   7.884 -0.0590  0.6784 -0.2140
 4105TIP3   OH238425   1.156   7.490   6.782  0.0812 -0.1256  0.1798
 4105TIP3    H138426   1.111   7.501   6.698  0.9197  0.0196 -0.2617
 4105TIP3    H238427   1.212   7.413   6.769  0.0855 -0.2018  0.6584
 4106TIP3   OH238428   1.015   1.268   6.432 -0.1448 -0.7756 -0.3583
 4106TIP3    H138429   0.972   1.306   6.355 -0.3900 -0.1055  0.1035
 4106TIP3    H238430   0.976   1.182   6.442  0.0459 -0.9560 -1.1164
 4107TIP3   OH238431   3.987   3.838   1.291 -0.0349  0.2673 -0.1287
 4107TIP3    H138432   4.012   3.918   1.245  0.7874  0.2955  0.3565
 4107TIP3    H238433   3.892   3.834   1.282 -0.1113  1.4333  0.0559
 4108TIP3   OH238434   2.444   6.830   0.973  0.2162 -0.0290  0.0366
 4108TIP3    H138435   2.521   6.869   0.930 -0.5991  0.7318 -0.7913
 4108TIP3    H238436   2.387   6.806   0.900 -0.0425 -1.2079  0.6226
 4109TIP3   OH238437   5.875   6.370   0.329 -0.6704  0.2676 -0.3601
 4109TIP3    H138438   5.864   6.459   0.364 -0.5322  0.2131 -0.1724
 4109TIP3    H238439   5.822   6.315   0.386 -0.2851  0.1507 -0.1070
 4110TIP3   OH238440   2.300   4.360   0.207 -0.4777 -0.0396 -0.4371
 4110TIP3    H138441   2.210   4.336   0.228 -1.1707  1.0444 -1.9995
 4110TIP3    H238442   2.296   4.394   0.117  1.2013  1.4752 -0.0096
 4111TIP3   OH238443   4.218   5.228   7.293  0.1955  0.1133  0.2850
 4111TIP3    H138444   4.291   5.196   7.347 -0.7300  0.4682  1.8302
 4111TIP3    H238445   4.141   5.216   7.349 -0.3780  3.8858  0.5483
 4112TIP3   OH238446   3.144   6.146   0.687 -0.2396 -0.5532  0.5833
 4112TIP3    H138447   3.091   6.182   0.759  1.2760  0.5083  1.2285
 4112TIP3    H238448   3.208   6.090   0.731  0.4164 -0.2484  0.0263
 4113TIP3   OH238449   4.473   2.281   6.190  0.0452 -0.4145 -0.2218
 4113TIP3    H138450   4.527   2.345   6.143  1.6761 -0.8768  0.9477
 4113TIP3    H238451   4.521   2.199   6.182 -0.6953 -0.9356  0.5104
 4114TIP3   OH238452   2.864   1.479   5.953  0.2022  0.2929 -0.0181
 4114TIP3    H138453   2.814   1.398   5.965  1.8138 -0.5182  1.7764
 4114TIP3    H238454   2.806   1.536   5.902 -1.4147 -1.5769 -0.3695
 4115TIP3   OH238455   3.647   0.692   6.119 -0.3492  0.2631 -0.1875
 4115TIP3    H138456   3.596   0.715   6.041  2.0250  0.0375 -1.9054
 4115TIP3    H238457   3.697   0.615   6.094 -0.1531 -0.3493  1.8890
 4116TIP3   OH238458   7.939   6.236   7.129  0.2996 -0.2157  0.6368
 4116TIP3    H138459   7.968   6.227   7.219 -2.1025 -0.5912  1.4523
 4116TIP3    H238460   7.879   6.162   7.115  1.4743 -0.8431 -1.6720
 4117TIP3   OH238461   0.437   4.423   7.459  0.1608 -0.5969  0.2720
 4117TIP3    H138462   0.460   4.460   7.545  0.6285  1.7288 -0.7814
 4117TIP3    H238463   0.351   4.382   7.473 -0.2266  0.5949  1.6331
 4118TIP3   OH238464   5.270   0.385   7.387  0.2863 -0.6389  0.2728
 4118TIP3    H138465   5.254   0.477   7.363 -1.9625 -0.7174  1.1710
 4118TIP3    H238466   5.239   0.336   7.311  0.2295 -0.6832  0.3249
 4119TIP3   OH238467   7.445   4.592   0.247  0.0344  0.3030  0.2403
 4119TIP3    H138468   7.538   4.618   0.249  0.0213  0.4928 -0.8052
 4119TIP3    H238469   7.399   4.671   0.219 -0.1831 -0.3820 -1.4452
 4120TIP3   OH238470   5.917   3.259   0.049 -0.4996  0.0826  0.0212
 4120TIP3    H138471   5.999   3.214   0.029 -0.9116 -0.1187 -1.3309
 4120TIP3    H238472   5.849   3.201   0.015 -1.1844  0.4658  0.7070
 4121TIP3   OH238473   7.742   0.978   6.042  0.6976 -0.1238 -0.1170
 4121TIP3    H138474   7.698   0.914   6.099  1.0209 -0.7781 -0.5873
 4121TIP3    H238475   7.678   1.049   6.033 -0.9427 -1.6772 -1.9335
 4122TIP3   OH238476   1.875   7.589   0.409 -0.1904 -0.2001 -0.3330
 4122TIP3    H138477   1.903   7.593   0.317  2.7126  1.3653  0.4620
 4122TIP3    H238478   1.939   7.530   0.450  0.7317  1.7678  1.2191
 4123TIP3   OH238479   4.403   5.568   0.520  0.8051  0.4298 -0.5016
 4123TIP3    H138480   4.427   5.597   0.431  0.7956  1.1285 -0.2826
 4123TIP3    H238481   4.439   5.635   0.577  1.2565 -0.2900  0.0664
 4124TIP3   OH238482   3.849   6.588   0.970 -0.1421  0.1349 -0.3818
 4124TIP3    H138483   3.842   6.602   1.064 -0.9045  2.3462 -0.7131
 4124TIP3    H238484   3.864   6.494   0.961 -0.7019 -0.2339  1.9008
 4125TIP3   OH238485   3.230   4.423   0.417  0.1840 -0.5593  0.3554
 4125TIP3    H138486   3.201   4.340   0.378 -1.0078 -0.0578  0.1311
 4125TIP3    H238487   3.169   4.488   0.382  1.9537  0.6715 -0.5966
 4126TIP3   OH238488   2.435   1.556   0.406  0.6232 -0.0442 -0.4076
 4126TIP3    H138489   2.378   1.603   0.467 -0.2597 -0.6856 -0.7206
 4126TIP3    H238490   2.516   1.607   0.405  0.0333  0.9301 -0.0089
 4127TIP3   OH238491   1.657   2.010   1.213 -0.4359  0.1880 -0.0712
 4127TIP3    H138492   1.629   2.004   1.121  1.3432  2.6403 -0.8719
 4127TIP3    H238493   1.751   2.029   1.208 -0.0953 -0.6077  2.3174
 4128TIP3   OH238494   0.370   7.456   1.406 -0.0108  0.2815 -0.0495
 4128TIP3    H138495   0.337   7.510   1.478 -1.4086 -1.1386  0.4341
 4128TIP3    H238496   0.332   7.370   1.421  0.5657 -0.3504 -1.8950
 4129TIP3   OH238497   5.612   5.572   1.515  0.1700  0.2960  0.0083
 4129TIP3    H138498   5.691   5.586   1.567 -0.3849  0.4063  0.8388
 4129TIP3    H238499   5.601   5.477   1.511 -0.1446  0.3012  0.6549
 4130TIP3   OH238500   4.425   7.946   7.340 -0.3270  0.5317 -0.3477
 4130TIP3    H138501   4.381   8.026   7.368 -0.4221  0.3344  0.0734
 4130TIP3    H238502   4.358   7.878   7.346  0.3547 -0.0318  1.6025
 4131TIP3   OH238503   7.458   5.496   7.794  0.2645 -0.4110  0.6704
 4131TIP3    H138504   7.553   5.510   7.801  0.4386  0.0886 -1.6546
 4131TIP3    H238505   7.448   5.401   7.789  0.9129 -0.4193 -1.2514
 4132TIP3   OH238506   6.644   0.875   7.914  0.4523 -0.8874 -0.0529
 4132TIP3    H138507   6.648   0.828   7.997  1.3947  1.7976  1.5448
 4132TIP3    H238508   6.729   0.858   7.873  0.1773 -1.8149 -0.2608
 4133TIP3   OH238509   0.530   1.616   0.129 -0.2142  0.1978 -0.1004
 4133TIP3    H138510   0.614   1.578   0.101  0.1017  0.1208  0.9212
 4133TIP3    H238511   0.464   1.560   0.090  0.0958  1.5480 -2.8800
 4134TIP3   OH238512   3.405   3.119   7.441  0.4736 -0.5979  0.0115
 4134TIP3    H138513   3.385   3.045   7.498  0.0814 -0.3026  0.2627
 4134TIP3    H238514   3.404   3.082   7.352 -0.0302 -0.8344  0.1112
 4135TIP3   OH238515   3.869   5.606   6.744  0.0788 -0.5099  0.8235
 4135TIP3    H138516   3.939   5.642   6.689 -0.6786  1.9205  1.3184
 4135TIP3    H238517   3.810   5.562   6.683  0.8407 -0.5892  0.1230
 4136TIP3   OH238518   4.415   0.785   1.970  0.4172 -0.9430 -0.0388
 4136TIP3    H138519   4.440   0.763   1.880 -1.3051 -0.8147 -0.5925
 4136TIP3    H238520   4.364   0.866   1.961  1.2626 -0.2354  1.2238
 4137TIP3   OH238521   5.948   4.809   7.897  0.3779 -0.2520  0.0697
 4137TIP3    H138522   5.994   4.827   7.815  0.2896 -2.8476 -0.6333
 4137TIP3    H238523   6.012   4.766   7.952 -0.0689 -0.1543  0.6709
 4138TIP3   OH238524   1.172   7.839   6.551 -0.2832 -0.0852 -0.4984
 4138TIP3    H138525   1.135   7.904   6.491 -0.0096  0.7391  0.2087
 4138TIP3    H238526   1.097   7.798   6.592 -0.5893  3.1281  2.6200
 4139TIP3   OH238527   8.026   0.415   4.803  0.2957  0.0809  0.9375
 4139TIP3    H138528   8.087   0.468   4.853 -0.3579  2.3758 -0.5266
 4139TIP3    H238529   7.941   0.458   4.815 -0.1926 -0.3649 -0.6425
 4140TIP3   OH238530   6.177   1.974   7.618  0.0798 -0.2247 -0.1231
 4140TIP3    H138531   6.184   1.934   7.704  1.0245 -1.1609 -0.6159
 4140TIP3    H238532   6.237   1.924   7.562 -1.8768 -0.8514 -1.7929
 4141TIP3   OH238533   5.748   6.590   1.453 -0.4229  0.1338 -0.8455
 4141TIP3    H138534   5.815   6.537   1.496 -0.5200 -0.5430 -1.5014
 4141TIP3    H238535   5.797   6.652   1.398 -0.2993  1.0048  0.2214
 4142TIP3   OH238536   5.247   6.220   7.335 -0.3398 -0.0341  0.3950
 4142TIP3    H138537   5.216   6.151   7.394  0.0715  0.7143  1.5271
 4142TIP3    H238538   5.273   6.174   7.255 -2.2036 -0.9315  0.2543
 4143TIP3   OH238539   3.708   6.897   0.929  0.2314 -0.5069  0.6738
 4143TIP3    H138540   3.612   6.901   0.937  0.0901 -0.6636 -0.6516
 4143TIP3    H238541   3.733   6.988   0.912  0.1520 -0.6580 -0.3367
 4144TIP3   OH238542   0.774   6.524   5.830  0.4774  0.0740 -0.2845
 4144TIP3    H138543   0.850   6.490   5.877  1.6105  0.2282 -1.9437
 4144TIP3    H238544   0.738   6.448   5.785  1.5627  0.5306 -2.0252
 4145TIP3   OH238545   1.614   3.775   0.362 -0.0838  0.3587 -0.0174
 4145TIP3    H138546   1.599   3.701   0.421  0.5386  1.0139  0.9804
 4145TIP3    H238547   1.660   3.737   0.287  0.2391 -0.2644  0.4886
 4146TIP3   OH238548   3.200   2.053   1.683  0.2686 -0.1629  0.6906
 4146TIP3    H138549   3.128   2.109   1.714 -1.3609 -1.0154 -1.3319
 4146TIP3    H238550   3.163   1.965   1.683  1.5858 -0.7293  0.3459
 4147TIP3   OH238551   7.181   3.479   7.053  0.2057 -0.1874  0.2685
 4147TIP3    H138552   7.220   3.486   7.140 -0.7638  0.3759  0.6786
 4147TIP3    H238553   7.245   3.518   6.995  1.7220 -2.2572  0.4289
 4148TIP3   OH238554   6.004   3.367   1.546  0.0628  0.3703 -0.1377
 4148TIP3    H138555   5.981   3.369   1.639 -0.3000  0.6645 -0.2339
 4148TIP3    H238556   5.922   3.344   1.502 -0.0457  1.3830 -0.4801
 4149TIP3   OH238557   4.770   2.838   1.284  0.3013 -0.3212  0.0186
 4149TIP3    H138558   4.836   2.838   1.215  1.2923 -0.6894  0.9432
 4149TIP3    H238559   4.694   2.794   1.245  0.4637  0.4167 -1.1714
 4150TIP3   OH238560   7.451   4.922   1.254  0.2348 -0.3031  0.1893
 4150TIP3    H138561   7.443   4.873   1.336  0.3731 -0.9149 -0.1603
 4150TIP3    H238562   7.410   4.866   1.188  0.2330  0.1302 -0.1849
 4151TIP3   OH238563   0.985   7.648   1.380 -0.1537  0.5174 -0.2102
 4151TIP3    H138564   1.019   7.621   1.295  1.4395 -0.4039  0.6713
 4151TIP3    H238565   0.912   7.587   1.397  0.9281 -0.7677  0.0245
 4152TIP3   OH238566   7.957   3.112   1.339 -0.0094 -0.4089  0.0026
 4152TIP3    H138567   7.883   3.172   1.327  0.6299  0.5280  0.6401
 4152TIP3    H238568   7.930   3.055   1.411 -0.4682 -0.6623 -0.3621
 4153TIP3   OH238569   7.878   0.567   4.992  0.0353 -0.3428  0.5358
 4153TIP3    H138570   7.842   0.643   4.946 -0.9080 -0.4312  1.0944
 4153TIP3    H238571   7.869   0.590   5.085  1.6391 -0.2845  0.7092
 4154TIP3   OH238572   1.748   6.863   0.895 -0.2353  0.0046 -0.2830
 4154TIP3    H138573   1.704   6.948   0.903  3.6072  2.4210 -1.6623
 4154TIP3    H238574   1.806   6.874   0.819  2.3429 -2.9141  1.0520
 4155TIP3   OH238575   3.349   3.206   0.594  0.2143 -0.0510  0.0194
 4155TIP3    H138576   3.384   3.159   0.519 -0.1804  0.7242 -0.6666
 4155TIP3    H238577   3.366   3.149   0.669 -0.9877 -1.6898 -0.8897
 4156TIP3   OH238578   6.562   7.714   6.442  0.6112  0.3172  0.1557
 4156TIP3    H138579   6.524   7.683   6.360  0.0209  0.4548  0.3685
 4156TIP3    H238580   6.588   7.805   6.424  0.9379  0.1920 -0.0186
 4157TIP3   OH238581   2.847   5.006   1.265  0.4212  0.2195  0.1843
 4157TIP3    H138582   2.937   5.040   1.263  0.4604  0.4258  2.4863
 4157TIP3    H238583   2.792   5.082   1.247  0.6805  0.0068 -1.6689
 4158TIP3   OH238584   2.314   5.701   1.276 -0.3338 -0.3161  0.0872
 4158TIP3    H138585   2.254   5.771   1.300 -1.4974 -1.3769  0.3475
 4158TIP3    H238586   2.399   5.730   1.308 -0.9831  0.5225  1.0822
 4159TIP3   OH238587   6.664   4.037   0.521  0.1539  0.3723 -0.4714
 4159TIP3    H138588   6.587   4.003   0.477  1.3690 -2.4519 -0.6140
 4159TIP3    H238589   6.653   4.011   0.612  0.3356  1.1270 -0.2280
 4160TIP3   OH238590   6.621   4.064   7.754 -0.5917 -0.4147  0.0212
 4160TIP3    H138591   6.622   4.085   7.661 -0.4716  0.6296  0.2497
 4160TIP3    H238592   6.713   4.048   7.775 -0.7521 -1.9090 -0.2963
 4161TIP3   OH238593   0.405   4.204   7.699 -0.2614  0.0043  0.4386
 4161TIP3    H138594   0.488   4.251   7.701  0.7431 -1.6740  0.4969
 4161TIP3    H238595   0.426   4.117   7.735 -2.7020  0.4876  3.4338
 4162TIP3   OH238596   4.542   3.515   7.676  0.4098  0.9002  0.1292
 4162TIP3    H138597   4.595   3.501   7.754 -0.7495  0.4845  0.8748
 4162TIP3    H238598   4.454   3.532   7.710  0.2213  2.4507 -1.0331
 4163TIP3   OH238599   5.396   5.521   1.844  0.2336  0.3832  0.4779
 4163TIP3    H138600   5.389   5.540   1.938  0.0153  0.7232  0.3938
 4163TIP3    H238601   5.317   5.558   1.806  0.4946  0.5674  0.1067
 4164TIP3   OH238602   1.179   3.223   0.833 -0.4582 -0.3779 -0.6360
 4164TIP3    H138603   1.192   3.133   0.804 -1.8544 -0.5369 -0.8630
 4164TIP3    H238604   1.107   3.255   0.779 -3.4478 -0.7917  2.6501
 4165TIP3   OH238605   5.665   7.500   0.565  0.1897  0.0339 -0.0872
 4165TIP3    H138606   5.669   7.548   0.483 -0.3377  1.6230  0.7706
 4165TIP3    H238607   5.644   7.410   0.540  3.5823 -0.4181 -1.9446
 4166TIP3   OH238608   5.420   1.129   0.138 -0.1991 -0.0136 -0.5669
 4166TIP3    H138609   5.335   1.085   0.137 -0.7124  0.9582 -0.2273
 4166TIP3    H238610   5.483   1.059   0.158 -1.0320 -0.5497  0.2375
 4167TIP3   OH238611   5.488   7.160   7.248  0.2797 -0.2494  0.2439
 4167TIP3    H138612   5.523   7.105   7.178  0.7690 -0.6567  0.7955
 4167TIP3    H238613   5.471   7.244   7.206 -2.5422 -1.3720 -1.1706
 4168TIP3   OH238614   3.464   5.105   0.834  0.3594  0.6365 -0.3397
 4168TIP3    H138615   3.496   5.104   0.744 -0.5301 -0.4774 -0.6692
 4168TIP3    H238616   3.497   5.024   0.873  0.8464  1.1680  0.3954
 4169TIP3   OH238617   5.588   5.098   1.442  0.1494  0.2856  0.2213
 4169TIP3    H138618   5.495   5.095   1.466  0.1376 -0.6352  0.0990
 4169TIP3    H238619   5.604   5.015   1.397  0.4058  1.5469 -2.1383
 4170TIP3   OH238620   4.928   2.728   7.699 -0.5382 -0.0351 -0.2035
 4170TIP3    H138621   4.956   2.819   7.702 -2.0575  0.4287  0.2425
 4170TIP3    H238622   5.007   2.680   7.671  0.9244  1.1154  1.7177
 4171TIP3   OH238623   6.603   2.439   7.026  0.0165  0.6442 -0.1818
 4171TIP3    H138624   6.536   2.427   6.958 -0.0369 -3.8780  0.4160
 4171TIP3    H238625   6.557   2.419   7.108  1.5809 -0.5654  0.4427
 4172TIP3   OH238626   7.200   7.938   5.471  0.0663  0.8245  0.0121
 4172TIP3    H138627   7.162   8.026   5.480  2.2261  1.7103  1.3217
 4172TIP3    H238628   7.203   7.904   5.561 -1.1797 -0.8456 -0.5211
 4173TIP3   OH238629   3.386   1.992   7.504 -0.3016  0.2650 -0.5916
 4173TIP3    H138630   3.459   1.933   7.524 -0.8855 -0.2783  0.0236
 4173TIP3    H238631   3.310   1.949   7.544 -0.9632  0.7973 -1.2545
 4174TIP3   OH238632   1.667   3.928   6.626 -0.2170 -0.0926  0.4655
 4174TIP3    H138633   1.689   3.851   6.574 -0.3392 -0.0320  0.3243
 4174TIP3    H238634   1.730   3.927   6.698 -0.8298 -0.8702  1.0166
 4175TIP3   OH238635   7.327   2.850   0.400 -0.4551  0.4463 -0.2848
 4175TIP3    H138636   7.257   2.870   0.463  0.5051 -1.4439  1.5190
 4175TIP3    H238637   7.406   2.885   0.442  0.1537 -0.5473 -0.5851
 4176TIP3   OH238638   5.968   4.730   6.715 -0.1077 -0.0174 -0.3290
 4176TIP3    H138639   6.043   4.746   6.657 -0.5312  0.1160 -0.8504
 4176TIP3    H238640   5.979   4.640   6.745 -1.1132 -0.9543 -2.4947
 4177TIP3   OH238641   0.998   1.823   6.520 -0.5439  0.7114 -0.0353
 4177TIP3    H138642   0.914   1.852   6.555 -0.5943 -0.7059  1.1005
 4177TIP3    H238643   1.025   1.750   6.577 -0.0902 -0.9847 -2.2667
 4178TIP3   OH238644   4.117   3.842   6.932 -0.0704  0.0475  0.5918
 4178TIP3    H138645   4.193   3.884   6.892 -0.2866  0.6221  0.7659
 4178TIP3    H238646   4.148   3.811   7.017 -0.1637  0.7705  0.8976
 4179TIP3   OH238647   3.243   6.738   1.813 -0.5477  0.8809 -0.4090
 4179TIP3    H138648   3.310   6.789   1.768  0.8300  0.5825  1.1951
 4179TIP3    H238649   3.226   6.664   1.754  0.2976  1.1443 -1.0050
 4180TIP3   OH238650   1.847   7.335   7.315  0.0015 -0.1171  0.3651
 4180TIP3    H138651   1.878   7.371   7.399 -0.8485 -0.3171  0.7727
 4180TIP3    H238652   1.926   7.299   7.274  0.0952 -1.9527  2.0447
 4181TIP3   OH238653   7.807   8.106   0.483 -0.0144 -0.7906 -0.1332
 4181TIP3    H138654   7.793   8.185   0.535  1.5536 -0.6886  0.1600
 4181TIP3    H238655   7.823   8.037   0.547 -1.4092 -1.3840 -0.3867
 4182TIP3   OH238656   4.097   2.080   6.014  0.2462  1.1513 -0.0635
 4182TIP3    H138657   4.041   2.136   5.961  0.8874  1.0401 -0.8748
 4182TIP3    H238658   4.126   2.136   6.086 -0.6996  1.2796  0.2289
 4183TIP3   OH238659   6.571   5.071   1.731 -0.1131 -0.0324  0.6770
 4183TIP3    H138660   6.541   5.105   1.646 -2.0032 -0.5510  1.1049
 4183TIP3    H238661   6.652   5.024   1.710  0.3671  1.2574 -0.5566
 4184TIP3   OH238662   2.404   5.696   7.080 -0.6872 -0.0208 -1.0438
 4184TIP3    H138663   2.479   5.753   7.097  0.6009 -1.8902 -0.0032
 4184TIP3    H238664   2.438   5.630   7.020 -1.0233 -1.6979  0.5123
 4185TIP3   OH238665   4.509   7.759   0.653  0.2129  0.4025  0.2131
 4185TIP3    H138666   4.498   7.706   0.574 -0.0317 -1.6090  1.5329
 4185TIP3    H238667   4.471   7.844   0.630 -0.7534 -0.4434 -1.5181
 4186TIP3   OH238668   6.802   7.997   2.034 -0.8374 -0.1456  0.6940
 4186TIP3    H138669   6.826   8.050   2.110 -1.4556  2.8178 -1.0468
 4186TIP3    H238670   6.719   7.956   2.058  0.3915 -1.6786  2.6465
 4187TIP3   OH238671   5.100   0.058   0.513  0.1331  0.4450 -0.5840
 4187TIP3    H138672   5.176   0.009   0.544 -1.1333 -2.3220 -1.5549
 4187TIP3    H238673   5.111   0.145   0.551  3.4481  0.0036 -0.2266
 4188TIP3   OH238674   5.525   5.487   7.479 -0.2408 -0.2472 -0.6173
 4188TIP3    H138675   5.463   5.422   7.509 -0.0011 -0.1553  0.1035
 4188TIP3    H238676   5.491   5.570   7.512 -0.3535 -0.0438 -1.2217
 4189TIP3   OH238677   3.064   3.204   0.640  0.0265 -0.3570  0.0827
 4189TIP3    H138678   3.135   3.240   0.588  0.5789 -1.5373  0.0148
 4189TIP3    H238679   3.073   3.247   0.726  0.3473  0.0558 -0.1574
 4190TIP3   OH238680   0.225   2.290   5.744 -0.6576 -0.0103 -0.1032
 4190TIP3    H138681   0.246   2.373   5.788  1.7001 -0.1503 -0.8172
 4190TIP3    H238682   0.200   2.316   5.655 -0.7362 -0.0187 -0.0836
 4191TIP3   OH238683   3.946   2.248   1.503 -0.5477  0.6714  0.2746
 4191TIP3    H138684   3.874   2.283   1.555 -1.1930 -0.4359  0.1450
 4191TIP3    H238685   4.024   2.264   1.556 -0.6288  3.2903 -0.2442
 4192TIP3   OH238686   1.798   8.112   7.297  0.0071  0.3812 -0.0120
 4192TIP3    H138687   1.744   8.126   7.220  0.3583 -1.1807 -0.5825
 4192TIP3    H238688   1.772   8.181   7.358 -2.1288  0.0978 -0.5279
 4193TIP3   OH238689   5.945   4.534   0.129  0.1570 -0.1082 -0.4500
 4193TIP3    H138690   6.022   4.479   0.145 -0.4354 -0.7681  0.2061
 4193TIP3    H238691   5.871   4.480   0.158 -0.5915  0.3481 -1.4492
 4194TIP3   OH238692   7.010   5.846   1.091 -0.0613  0.1545  0.4584
 4194TIP3    H138693   7.078   5.818   1.030 -1.6985 -1.3596 -0.7826
 4194TIP3    H238694   6.986   5.933   1.062  2.6366  1.6118  2.1622
 4195TIP3   OH238695   1.010   6.519   6.835  0.8247  0.0589 -0.0697
 4195TIP3    H138696   0.937   6.575   6.861  0.5043  0.4542 -1.7225
 4195TIP3    H238697   1.053   6.497   6.917  0.4254  1.9868  0.7144
 4196TIP3   OH238698   1.284   3.789   7.515 -0.3032  0.5203  0.1894
 4196TIP3    H138699   1.326   3.874   7.530 -0.2295  0.4279  0.5138
 4196TIP3    H238700   1.354   3.732   7.484 -0.4242  0.6699 -0.3757
 4197TIP3   OH238701   1.164   4.273   6.556  0.5022  0.3977 -0.2467
 4197TIP3    H138702   1.119   4.285   6.472 -0.5170  0.4881  0.2932
 4197TIP3    H238703   1.218   4.195   6.544 -1.0404 -0.6902 -0.4343
 4198TIP3   OH238704   1.603   1.780   7.427  0.1416 -0.5785  0.6008
 4198TIP3    H138705   1.526   1.833   7.404  0.5176  0.1411  0.9506
 4198TIP3    H238706   1.658   1.782   7.348  0.9405  1.0018  1.1541
 4199TIP3   OH238707   0.305   3.087   6.387 -0.0994  0.2182  0.3577
 4199TIP3    H138708   0.369   3.158   6.391  0.0358  0.0523  1.5698
 4199TIP3    H238709   0.287   3.067   6.479 -0.1372 -1.3159  0.0331
 4200TIP3   OH238710   0.209   3.220   0.269  0.5204  0.2082 -0.4521
 4200TIP3    H138711   0.244   3.224   0.358  0.5403  0.5007 -0.4699
 4200TIP3    H238712   0.229   3.306   0.231 -1.5104  0.9726  0.0324
 4201TIP3   OH238713   5.208   7.560   7.634  0.0738  0.4221 -0.6431
 4201TIP3    H138714   5.180   7.607   7.556  0.5371  0.2310 -0.9240
 4201TIP3    H238715   5.294   7.596   7.654  1.5074 -1.9309 -2.2322
 4202TIP3   OH238716   1.280   2.286   1.546 -0.3063  0.4864  0.0445
 4202TIP3    H138717   1.264   2.275   1.640  2.2558 -1.2936  0.3937
 4202TIP3    H238718   1.336   2.363   1.540  2.9025 -1.6112  0.5780
 4203TIP3   OH238719   5.240   6.183   7.889 -0.1866  0.6841  0.2274
 4203TIP3    H138720   5.252   6.269   7.931 -1.2615  0.5905  0.7634
 4203TIP3    H238721   5.247   6.120   7.961  1.9339  0.1863 -0.3568
 4204TIP3   OH238722   1.308   3.224   1.370  0.2772 -0.0290 -0.4067
 4204TIP3    H138723   1.289   3.286   1.441  1.0745 -1.7728  1.4343
 4204TIP3    H238724   1.401   3.206   1.379  0.0361 -1.5704 -0.8273
 4205TIP3   OH238725   7.837   6.799   6.427  0.6230  0.0038 -0.0391
 4205TIP3    H138726   7.905   6.734   6.411 -0.6721 -1.5898  0.5991
 4205TIP3    H238727   7.873   6.856   6.495  1.6760 -0.2135 -0.4112
 4206TIP3   OH238728   5.417   3.754   0.522 -0.5599 -0.1372  0.3371
 4206TIP3    H138729   5.421   3.658   0.515 -3.3999 -0.2291 -2.0031
 4206TIP3    H238730   5.508   3.783   0.513  0.1262 -2.5375 -1.3598
 4207TIP3   OH238731   1.487   8.051   6.668 -0.6209  0.0773  0.1930
 4207TIP3    H138732   1.501   8.145   6.656 -3.7829  0.9894  2.3541
 4207TIP3    H238733   1.457   8.020   6.582  0.0641  1.1149 -0.4415
 4208TIP3   OH238734   0.509   1.292   0.570 -0.3122 -0.8909 -0.4407
 4208TIP3    H138735   0.545   1.349   0.502 -0.7095  0.6037  0.5532
 4208TIP3    H238736   0.581   1.281   0.633 -1.1831  1.3214  1.0625
 4209TIP3   OH238737   3.597   2.905   7.500  0.5444 -0.5263  0.4261
 4209TIP3    H138738   3.515   2.925   7.545  1.4394  2.8670  0.8360
 4209TIP3    H238739   3.653   2.868   7.569  0.2792 -0.0954  0.8848
 4210TIP3   OH238740   2.220   1.397   7.394  0.1571 -0.4633  0.5911
 4210TIP3    H138741   2.192   1.323   7.449 -1.7445  0.5564  1.0906
 4210TIP3    H238742   2.148   1.460   7.400  0.9254  0.6784 -1.2692
 4211TIP3   OH238743   4.185   4.718   0.073 -0.1714  0.6398 -0.3865
 4211TIP3    H138744   4.280   4.724   0.078 -0.1981  1.8981 -1.0810
 4211TIP3    H238745   4.158   4.798   0.028 -1.5593  0.2985 -0.2043
 4212TIP3   OH238746   1.757   5.955   1.536 -1.0577 -0.7948 -0.0840
 4212TIP3    H138747   1.783   5.879   1.484 -1.0538 -0.6604 -0.2814
 4212TIP3    H238748   1.825   5.961   1.604 -1.5129 -1.4545  0.4384
 4213TIP3   OH238749   7.797   1.618   4.970 -0.3031  0.3609 -0.0397
 4213TIP3    H138750   7.750   1.575   5.041 -1.3488  1.2565 -0.1723
 4213TIP3    H238751   7.884   1.634   5.006  0.0492 -1.6008  0.0981
 4214TIP3   OH238752   4.893   5.884   0.438  0.1018 -0.5320  0.1631
 4214TIP3    H138753   4.882   5.789   0.433 -0.3535 -0.6061  1.8528
 4214TIP3    H238754   4.988   5.897   0.430  0.2699 -1.2157  0.9114
 4215TIP3   OH238755   4.403   3.513   1.871  0.2076  0.2915 -0.1258
 4215TIP3    H138756   4.382   3.448   1.805 -0.0131 -0.4344  0.6354
 4215TIP3    H238757   4.487   3.483   1.907  0.3567  0.7120 -0.1267
 4216TIP3   OH238758   7.213   3.083   1.432  0.0928  0.3246  0.1585
 4216TIP3    H138759   7.265   3.010   1.399 -3.3612 -0.3436 -4.7381
 4216TIP3    H238760   7.212   3.146   1.361 -2.6209  2.0109  1.5265
 4217TIP3   OH238761   5.777   2.473   2.596 -0.5751 -0.3674 -0.3636
 4217TIP3    H138762   5.804   2.382   2.588 -0.2816 -0.1902 -1.6521
 4217TIP3    H238763   5.682   2.469   2.612 -0.3015 -0.9118  1.3437
 4218TIP3   OH238764   6.196   8.016   6.332  0.0582  0.0927 -0.3895
 4218TIP3    H138765   6.111   8.048   6.361 -1.2269  1.5999 -4.9699
 4218TIP3    H238766   6.187   7.920   6.331 -1.3915  0.2084 -0.2647
 4219TIP3   OH238767   0.939   5.283   1.752  0.1196 -0.2927 -0.0585
 4219TIP3    H138768   1.015   5.337   1.772 -0.9521  1.5325 -0.7178
 4219TIP3    H238769   0.911   5.249   1.837  1.9728 -1.4953  0.1261
 4220TIP3   OH238770   1.273   2.537   0.060 -0.0406 -0.4354 -0.0088
 4220TIP3    H138771   1.268   2.444   0.083  3.0123 -0.4038  1.2135
 4220TIP3    H238772   1.366   2.555   0.055 -0.4876  2.9251  1.3381
 4221TIP3   OH238773   2.711   7.917   0.689  0.2117 -0.0657 -0.6419
 4221TIP3    H138774   2.692   7.922   0.782 -0.7668 -1.6945 -0.7280
 4221TIP3    H238775   2.806   7.926   0.683  0.3691 -0.8050  0.5868
 4222TIP3   OH238776   1.357   3.748   0.743 -1.2178  0.4666 -0.1222
 4222TIP3    H138777   1.432   3.803   0.720 -2.1171  1.6688 -0.2549
 4222TIP3    H238778   1.393   3.659   0.747  0.2499  1.0441  0.0295
 4223TIP3   OH238779   4.372   1.922   1.571 -0.1308 -0.7607 -0.3416
 4223TIP3    H138780   4.341   1.834   1.594  0.3689 -0.9683 -0.4556
 4223TIP3    H238781   4.333   1.979   1.638  0.4639 -1.2205  0.4116
 4224TIP3   OH238782   2.905   2.047   0.628  0.6034  0.0141 -0.2433
 4224TIP3    H138783   2.918   2.118   0.691 -1.0093  0.1183  0.0184
 4224TIP3    H238784   2.923   2.086   0.543  1.0693  0.3642  0.0129
 4225TIP3   OH238785   0.190   0.589   0.595 -0.0069 -0.2651 -0.1070
 4225TIP3    H138786   0.209   0.675   0.634  0.8161 -0.5126  0.0630
 4225TIP3    H238787   0.161   0.535   0.669 -0.2178 -0.2188 -0.1571
 4226TIP3   OH238788   0.397   7.486   1.132  0.0551 -0.1168  0.9032
 4226TIP3    H138789   0.402   7.581   1.122 -1.9204 -0.1047 -0.3651
 4226TIP3    H238790   0.407   7.472   1.227  0.9768  1.2626  1.0470
 4227TIP3   OH238791   1.473   2.781   5.647  0.1679 -0.0311  0.6970
 4227TIP3    H138792   1.515   2.859   5.685  1.4400 -0.1264 -0.4371
 4227TIP3    H238793   1.379   2.801   5.649  0.4552  1.4443  0.6240
 4228TIP3   OH238794   0.239   0.098   0.484 -0.4734  0.1845 -0.2844
 4228TIP3    H138795   0.275   0.180   0.517  0.6858  0.1849 -1.4412
 4228TIP3    H238796   0.315   0.049   0.454 -0.9507 -2.1017  1.9360
 4229TIP3   OH238797   2.562   8.007   0.465 -0.2904  0.4365 -0.0763
 4229TIP3    H138798   2.590   7.961   0.545  1.1335 -0.3764 -0.9749
 4229TIP3    H238799   2.469   8.023   0.477 -0.6715 -1.9035  0.7230
 4230TIP3   OH238800   0.301   3.783   6.996  0.2408  0.2454  0.1213
 4230TIP3    H138801   0.242   3.818   7.063 -0.7420 -0.7567 -0.1730
 4230TIP3    H238802   0.333   3.701   7.034  1.0351  0.5227  0.0539
 4231TIP3   OH238803   0.067   6.764   1.345 -0.5240 -0.0396  0.0008
 4231TIP3    H138804   0.135   6.699   1.330 -0.1858  0.9071 -3.2671
 4231TIP3    H238805  -0.015   6.717   1.332 -0.3025 -0.0355 -1.5158
 4232TIP3   OH238806   2.266   6.610   7.739 -0.0247  0.0482  0.1591
 4232TIP3    H138807   2.266   6.690   7.686  1.4021  0.1537  0.2767
 4232TIP3    H238808   2.253   6.540   7.676  1.0182  0.2207 -0.2599
 4233TIP3   OH238809   4.969   4.158   5.539 -0.1851  0.1903  0.3823
 4233TIP3    H138810   4.946   4.249   5.558 -1.1804 -0.0849  0.5388
 4233TIP3    H238811   5.019   4.162   5.457 -0.5172  0.8377  0.2080
 4234TIP3   OH238812   3.682   4.715   7.503 -0.1736  0.5558  0.0169
 4234TIP3    H138813   3.770   4.742   7.474 -0.5117  0.1099 -1.5252
 4234TIP3    H238814   3.624   4.783   7.469 -0.9203 -1.4291 -3.0905
 4235TIP3   OH238815   3.531   1.923   0.899  0.0456  0.3258 -0.0161
 4235TIP3    H138816   3.444   1.882   0.889 -0.9792  2.6288 -1.3251
 4235TIP3    H238817   3.554   1.950   0.810  2.0478 -0.0397  0.3617
 4236TIP3   OH238818   0.216   4.506   6.085  0.1156 -0.2368  0.4560
 4236TIP3    H138819   0.243   4.593   6.114  2.8541 -1.1269  0.7838
 4236TIP3    H238820   0.212   4.512   5.990  1.2425  0.0070  0.4200
 4237TIP3   OH238821   7.120   0.528   1.297  0.3245  0.0359  0.2268
 4237TIP3    H138822   7.133   0.517   1.391  0.9164 -0.2336  0.1190
 4237TIP3    H238823   7.115   0.623   1.284 -0.9603  0.0452  0.6781
 4238TIP3   OH238824   0.922   2.499   6.616 -0.8511  0.5255 -0.7694
 4238TIP3    H138825   1.017   2.512   6.618 -0.9130  0.9318  0.0415
 4238TIP3    H238826   0.911   2.405   6.605 -0.3302  0.2822  0.5599
 4239TIP3   OH238827   7.270   5.504   6.721  0.3315  0.1650 -0.6370
 4239TIP3    H138828   7.232   5.453   6.650 -0.9696  0.1028  0.0708
 4239TIP3    H238829   7.327   5.442   6.767 -0.8663 -0.5404 -0.0698
 4240TIP3   OH238830   6.479   6.367   7.751 -0.4897  0.1602 -0.1062
 4240TIP3    H138831   6.394   6.409   7.767 -0.5258  0.5044 -1.0891
 4240TIP3    H238832   6.538   6.406   7.816 -1.0539  0.0131  0.5037
 4241TIP3   OH238833   6.125   4.858   6.505  0.1518 -0.4485  0.2651
 4241TIP3    H138834   6.069   4.920   6.457  0.8935 -0.9499 -1.3089
 4241TIP3    H238835   6.134   4.897   6.592  1.8668  2.5316 -1.0856
 4242TIP3   OH238836   7.717   3.273   2.390 -0.3701  0.2184  0.1582
 4242TIP3    H138837   7.669   3.333   2.446  1.0293  2.7200 -1.1721
 4242TIP3    H238838   7.674   3.279   2.305 -0.0781 -0.5032 -0.0472
 4243TIP3   OH238839   4.625   0.983   0.214 -0.8651 -0.8124  0.5562
 4243TIP3    H138840   4.573   0.914   0.256 -1.5928 -0.3649  0.4038
 4243TIP3    H238841   4.628   0.959   0.122  0.2171 -1.4662  0.7360
 4244TIP3   OH238842   2.496   5.188   7.034 -0.1276  0.1987  0.9252
 4244TIP3    H138843   2.423   5.249   7.045 -0.8041 -0.7320  1.6649
 4244TIP3    H238844   2.456   5.102   7.027  0.8722 -0.2805  0.8615
 4245TIP3   OH238845   4.495   4.353   7.324 -0.2897 -0.0852 -0.5724
 4245TIP3    H138846   4.401   4.344   7.311 -0.4376  0.8846 -0.2865
 4245TIP3    H238847   4.505   4.377   7.416  0.1136  1.0976 -0.8942
 4246TIP3   OH238848   3.237   2.428   7.608 -1.0112 -0.3392  0.1489
 4246TIP3    H138849   3.226   2.405   7.700 -2.5614  0.3205  0.1531
 4246TIP3    H238850   3.309   2.372   7.578  0.8575  0.7806  2.2007
 4247TIP3   OH238851   3.663   2.280   0.780  0.1075 -0.1353 -0.0265
 4247TIP3    H138852   3.755   2.288   0.757  0.2095 -0.1966  0.3585
 4247TIP3    H238853   3.616   2.305   0.700  0.4596 -0.6573 -0.4059
 4248TIP3   OH238854   7.734   2.790   6.711 -0.4358 -0.1998 -0.3288
 4248TIP3    H138855   7.819   2.754   6.686 -1.4676 -1.2340 -2.7412
 4248TIP3    H238856   7.697   2.725   6.771  1.5949  1.7200  3.2737
 4249TIP3   OH238857   6.031   2.592   6.608 -0.2356 -0.6839  0.3459
 4249TIP3    H138858   6.076   2.567   6.527 -0.1071  1.9967 -0.5183
 4249TIP3    H238859   5.941   2.563   6.595  0.1448 -1.7448 -0.0283
 4250TIP3   OH238860   6.379   3.952   6.657 -0.4141  0.2211  0.1716
 4250TIP3    H138861   6.420   4.014   6.717  0.0351  1.9751 -1.8044
 4250TIP3    H238862   6.429   3.872   6.667  0.7671  1.0179  0.8852
 4251TIP3   OH238863   2.575   3.404   2.115 -0.0391 -0.8761  0.3894
 4251TIP3    H138864   2.652   3.452   2.084 -0.9426  1.7010  1.8165
 4251TIP3    H238865   2.590   3.392   2.209 -1.5593  0.1440  0.7983
 4252TIP3   OH238866   7.883   0.109   6.838 -0.2723 -0.2628  0.2036
 4252TIP3    H138867   7.794   0.073   6.841 -0.7042  0.8488  2.0307
 4252TIP3    H238868   7.940   0.033   6.850 -1.0844 -0.6699  1.7065
 4253TIP3   OH238869   1.131   1.179   7.807  0.3303 -0.4968  0.2923
 4253TIP3    H138870   1.063   1.115   7.785 -0.6575  0.6219 -0.0177
 4253TIP3    H238871   1.085   1.262   7.811  1.7272  0.3306 -0.1179
 4254TIP3   OH238872   5.608   5.994   0.762 -0.0538 -0.8699 -0.0695
 4254TIP3    H138873   5.643   5.929   0.823 -0.6756 -1.3967 -0.2625
 4254TIP3    H238874   5.524   5.958   0.734  0.2987 -0.7179 -1.3818
 4255TIP3   OH238875   6.701   0.108   1.174 -0.6491 -0.4464 -0.7165
 4255TIP3    H138876   6.654   0.112   1.091 -0.0057  0.3605 -1.0632
 4255TIP3    H238877   6.757   0.186   1.174 -0.0811 -0.8283  0.1380
 4256TIP3   OH238878   8.098   3.232   6.447  0.2521 -0.6275 -1.0096
 4256TIP3    H138879   8.103   3.242   6.352 -0.1298  0.0079 -0.9702
 4256TIP3    H238880   8.176   3.276   6.480 -1.5621  2.8270 -0.8176
 4257TIP3   OH238881   6.771   7.640   7.254 -0.5033 -0.0642 -0.3823
 4257TIP3    H138882   6.689   7.677   7.287 -0.7069 -1.1316  0.3785
 4257TIP3    H238883   6.840   7.682   7.305 -0.5362  1.0502 -1.2206
 4258TIP3   OH238884   2.526   1.596   0.969  0.0657 -0.1533 -0.5010
 4258TIP3    H138885   2.608   1.618   1.013 -0.7897 -0.0161  1.0790
 4258TIP3    H238886   2.534   1.502   0.948  0.1902 -0.4162  0.6625
 4259TIP3   OH238887   3.207   7.270   0.761  0.0601  0.2361 -0.1074
 4259TIP3    H138888   3.253   7.351   0.741  1.0479 -0.4510 -0.6850
 4259TIP3    H238889   3.174   7.239   0.677 -1.0702  0.4655  0.2301
 4260TIP3   OH238890   2.440   1.770   0.764 -0.3261 -0.3883 -0.8318
 4260TIP3    H138891   2.358   1.737   0.727 -0.8620 -0.4010  0.3177
 4260TIP3    H238892   2.472   1.698   0.818 -0.5486  0.2834  0.2283
 4261TIP3   OH238893   6.081   1.010   6.742 -0.8120  0.0343 -0.3992
 4261TIP3    H138894   6.013   0.979   6.801 -1.8264  0.1443 -1.4666
 4261TIP3    H238895   6.153   1.035   6.799 -1.8057  0.2798  0.7934
 4262TIP3   OH238896   0.763   6.831   1.224 -0.3577 -0.1965  0.3972
 4262TIP3    H138897   0.844   6.787   1.201 -0.4067  0.0763 -0.3189
 4262TIP3    H238898   0.787   6.890   1.296  0.3664  0.8046 -0.6282
 4263TIP3   OH238899   6.804   5.809   6.520  0.3189  0.3114  0.0194
 4263TIP3    H138900   6.756   5.728   6.505  1.4380 -0.4880  0.6101
 4263TIP3    H238901   6.896   5.783   6.519  0.8717  2.0084 -2.4883
 4264TIP3   OH238902   4.442   1.328   1.411 -0.2474  0.4282 -0.4034
 4264TIP3    H138903   4.538   1.329   1.402 -0.2180  0.4419 -0.0990
 4264TIP3    H238904   4.424   1.250   1.464 -0.3259  0.9939  0.4172
 4265TIP3   OH238905   0.658   7.005   1.779 -0.1240  0.4532 -0.6033
 4265TIP3    H138906   0.582   6.996   1.722 -0.8321  0.1760  0.3838
 4265TIP3    H238907   0.626   7.048   1.857  0.7675  0.4839 -0.2374
 4266TIP3   OH238908   6.091   3.160   6.308  0.1145 -0.1816 -0.0107
 4266TIP3    H138909   6.052   3.201   6.230  0.4630  0.2578  0.0424
 4266TIP3    H238910   6.054   3.208   6.382  0.4967  0.0157  0.0544
 4267TIP3   OH238911   6.460   2.536   7.825 -0.1293  0.1299 -0.2440
 4267TIP3    H138912   6.398   2.550   7.754 -2.0260 -0.4079  1.2208
 4267TIP3    H238913   6.441   2.605   7.888 -0.3351 -0.9341  0.9174
 4268TIP3   OH238914   1.019   5.910   0.273 -0.1976 -0.0073  0.0877
 4268TIP3    H138915   1.091   5.850   0.291  0.8329  0.7732 -1.2328
 4268TIP3    H238916   0.980   5.928   0.359  2.5473  1.2201  1.1852
 4269TIP3   OH238917   6.610   7.463   7.892 -0.2407  0.0643 -0.0172
 4269TIP3    H138918   6.663   7.429   7.820 -0.0863  2.8334 -1.3512
 4269TIP3    H238919   6.528   7.491   7.851 -1.3118 -0.8183  1.4034
 4270TIP3   OH238920   0.586   7.135   6.915  0.0986  0.1854 -0.2177
 4270TIP3    H138921   0.591   7.040   6.922 -0.6094  0.1453 -0.2148
 4270TIP3    H238922   0.594   7.153   6.821  0.1775  0.1219 -0.2231
 4271TIP3   OH238923   0.202   4.732   6.255  0.4504 -0.1201  0.5881
 4271TIP3    H138924   0.175   4.811   6.303  0.6689 -0.5768  1.5007
 4271TIP3    H238925   0.164   4.660   6.305  0.1525 -0.5991 -0.3085
 4272TIP3   OH238926   7.580   1.546   7.569  0.0643  0.2514  0.0325
 4272TIP3    H138927   7.663   1.550   7.615  0.2403 -0.4377 -0.2232
 4272TIP3    H238928   7.530   1.620   7.604  0.6406  0.4487  0.4531
 4273TIP3   OH238929   3.369   6.094   6.567  0.2865 -0.3562  0.1563
 4273TIP3    H138930   3.369   6.189   6.569  2.0670 -0.3050 -0.5793
 4273TIP3    H238931   3.290   6.071   6.519 -0.0698  0.7404  0.1899
 4274TIP3   OH238932   6.202   1.065   7.006  0.7862  0.3528 -0.3566
 4274TIP3    H138933   6.207   1.067   7.101 -0.8263 -0.3583 -0.2278
 4274TIP3    H238934   6.177   1.154   6.981  2.0342  0.7655 -0.2030
 4275TIP3   OH238935   5.666   3.857   2.487  0.0161  0.5533  0.0057
 4275TIP3    H138936   5.688   3.912   2.562 -0.2906 -0.8123  1.1436
 4275TIP3    H238937   5.571   3.852   2.489  0.0586 -0.3315  0.1725
 4276TIP3   OH238938   5.740   0.507   6.260  0.0223 -0.1968  0.3709
 4276TIP3    H138939   5.713   0.506   6.169  1.3749 -0.5785 -0.0470
 4276TIP3    H238940   5.784   0.591   6.271 -0.0388 -0.1982  0.6498
 4277TIP3   OH238941   7.080   3.516   7.534 -0.1207 -0.3195 -0.4377
 4277TIP3    H138942   7.044   3.453   7.597  1.0832  0.5757  1.2521
 4277TIP3    H238943   7.168   3.535   7.567 -0.3656  2.0940 -0.9586
 4278TIP3   OH238944   7.512   5.743   1.333  0.2645  0.1483  0.3874
 4278TIP3    H138945   7.418   5.729   1.346 -0.1606 -0.5235 -2.6969
 4278TIP3    H238946   7.519   5.832   1.299  0.8353  0.3941  1.1148
 4279TIP3   OH238947   4.514   7.748   0.958 -0.2440 -0.1181  0.2273
 4279TIP3    H138948   4.502   7.739   0.863 -0.9041 -0.0659  0.2972
 4279TIP3    H238949   4.609   7.751   0.971 -0.1441  1.9596 -0.6286
 4280TIP3   OH238950   1.683   3.016   0.646  0.5007 -0.2599 -0.1619
 4280TIP3    H138951   1.649   3.077   0.580 -1.6221 -1.9343 -0.7401
 4280TIP3    H238952   1.741   2.958   0.597 -1.3085 -1.6935 -0.7475
 4281TIP3   OH238953   0.267   4.829   6.825  0.1378 -0.5905 -0.1161
 4281TIP3    H138954   0.345   4.816   6.772  1.3936  1.3084  1.1432
 4281TIP3    H238955   0.201   4.860   6.763  1.2800  0.6714 -0.7455
 4282TIP3   OH238956   3.103   6.131   6.863 -0.1433  0.4033 -0.3295
 4282TIP3    H138957   3.105   6.167   6.951 -0.6337 -0.4051  0.0262
 4282TIP3    H238958   3.191   6.097   6.848 -0.6093 -1.4529  0.7351
 4283TIP3   OH238959   0.359   0.322   7.895 -0.1228  0.2934  0.3705
 4283TIP3    H138960   0.433   0.378   7.872 -0.3707  0.7624  0.6903
 4283TIP3    H238961   0.353   0.328   7.990  1.0204 -1.7938  0.6250
 4284TIP3   OH238962   4.627   8.018   0.835  0.4070 -0.0622  0.4258
 4284TIP3    H138963   4.562   8.009   0.904 -0.6833  1.9951 -0.2364
 4284TIP3    H238964   4.646   8.112   0.833  1.3248 -0.2434 -1.2602
 4285TIP3   OH238965   2.997   1.076   6.500  0.1057 -0.0929  0.0552
 4285TIP3    H138966   2.961   1.048   6.584 -0.7750  1.3591  0.2076
 4285TIP3    H238967   2.925   1.064   6.438 -0.1045  1.1862  0.0168
 4286TIP3   OH238968   2.458   7.866   7.831  0.4228  0.2025 -0.3448
 4286TIP3    H138969   2.491   7.787   7.874  1.4661  0.9452  0.2676
 4286TIP3    H238970   2.376   7.839   7.791  1.8193 -1.7731 -2.0698
 4287TIP3   OH238971   5.472   6.677   0.050  0.3471  0.2302  0.0715
 4287TIP3    H138972   5.470   6.639  -0.037 -0.5542 -2.0435  1.0068
 4287TIP3    H238973   5.541   6.629   0.096  0.6923  1.2680  0.6675
 4288TIP3   OH238974   1.703   7.672   7.687  0.0033  0.3806  0.8163
 4288TIP3    H138975   1.727   7.751   7.640  0.3362  0.2939  0.8386
 4288TIP3    H238976   1.608   7.665   7.676 -0.0532  0.8866  0.9789
 4289TIP3   OH238977   0.615   6.647   0.625 -0.0019  0.5835 -0.6960
 4289TIP3    H138978   0.602   6.740   0.644  0.0527  0.4958 -0.2033
 4289TIP3    H238979   0.566   6.631   0.544 -1.0855  0.7645 -0.0980
 4290TIP3   OH238980   3.078   5.674   0.484 -0.3876 -0.0128 -1.0366
 4290TIP3    H138981   3.139   5.609   0.519 -1.5238 -1.1020 -1.0465
 4290TIP3    H238982   3.112   5.757   0.518  0.0360 -0.7790  0.5317
 4291TIP3   OH238983   7.523   4.393   2.364 -0.0558 -0.4894  0.0698
 4291TIP3    H138984   7.531   4.462   2.298 -0.1740 -0.3151  0.2375
 4291TIP3    H238985   7.481   4.320   2.318 -1.6383  0.1942  0.3573
 4292TIP3   OH238986   4.333   5.763   7.858  0.4642 -0.2274 -0.3833
 4292TIP3    H138987   4.238   5.759   7.863  0.5115 -0.0342  1.3445
 4292TIP3    H238988   4.357   5.844   7.903  1.4430 -0.2813 -0.7764
 4293TIP3   OH238989   0.507   2.751   7.157  0.5984 -0.3632  0.0517
 4293TIP3    H138990   0.582   2.705   7.119  0.7271 -1.2928  1.3487
 4293TIP3    H238991   0.536   2.775   7.245 -0.7137 -1.0619  0.7208
 4294TIP3   OH238992   1.099   1.774   7.674  0.3515  0.5315  0.2782
 4294TIP3    H138993   1.112   1.691   7.720 -0.9497 -0.6901 -1.4086
 4294TIP3    H238994   1.186   1.798   7.643  1.0020  0.6368  2.0823
 4295TIP3   OH238995   2.115   1.204   0.814 -0.1810  0.0728  0.4650
 4295TIP3    H138996   2.140   1.144   0.884 -0.5701 -1.8227 -0.9413
 4295TIP3    H238997   2.030   1.171   0.784  1.1665 -0.8620 -2.6668
 4296TIP3   OH238998   2.682   2.173   0.394 -0.6912 -0.0386  0.2000
 4296TIP3    H138999   2.775   2.197   0.401 -1.6726  4.4872  0.3747
 4296TIP3    H239000   2.664   2.176   0.300 -1.0713  1.3442  0.2922
 4297TIP3   OH239001   4.327   2.720   7.840  0.3442 -0.0357  0.0612
 4297TIP3    H139002   4.393   2.666   7.882  1.3164  1.0341 -0.0370
 4297TIP3    H239003   4.250   2.664   7.835  0.3924 -0.4459  2.5980
 4298TIP3   OH239004   5.797   3.790   1.750  0.4416  0.2236  0.0748
 4298TIP3    H139005   5.826   3.817   1.663 -1.8294  1.7528 -0.3022
 4298TIP3    H239006   5.869   3.812   1.808  0.5619  2.8089 -0.9232
 4299TIP3   OH239007   2.640   4.056   1.595 -0.2595 -0.2630 -0.4322
 4299TIP3    H139008   2.602   4.112   1.663 -0.5574  0.9390 -1.5322
 4299TIP3    H239009   2.726   4.031   1.629 -0.1907  0.7421  0.1691
 4300TIP3   OH239010   5.916   0.371   2.061 -0.0173  0.0605 -0.2630
 4300TIP3    H139011   5.824   0.348   2.077  0.7968 -2.0692  2.2075
 4300TIP3    H239012   5.957   0.365   2.147  2.0891  3.1595 -0.8829
 4301TIP3   OH239013   3.703   6.930   6.789 -0.3853 -0.2825  0.6643
 4301TIP3    H139014   3.714   6.950   6.882 -1.1443 -2.3670  1.2630
 4301TIP3    H239015   3.747   6.846   6.777  0.0271  0.1336 -0.9627
 4302TIP3   OH239016   3.661   1.126   6.312  0.1656 -0.5499 -0.4106
 4302TIP3    H139017   3.660   1.220   6.295 -1.1376 -0.5364 -0.3824
 4302TIP3    H239018   3.751   1.106   6.336  0.1323  0.9819  1.1617
 4303TIP3   OH239019   4.061   2.173   0.264  0.4779 -0.7278 -0.3160
 4303TIP3    H139020   4.021   2.107   0.321 -0.2917  0.1598  0.2251
 4303TIP3    H239021   4.149   2.185   0.299  0.7363 -1.6645 -0.6089
 4304TIP3   OH239022   2.186   4.945   1.403  0.1596 -0.5504  0.6840
 4304TIP3    H139023   2.170   5.004   1.329 -0.0074  1.5650  2.3038
 4304TIP3    H239024   2.270   4.904   1.384  0.7892  1.0129 -0.0619
 4305TIP3   OH239025   5.288   2.193   6.900  0.2006 -0.3585 -0.0813
 4305TIP3    H139026   5.377   2.222   6.880  1.2414 -3.0124  0.2707
 4305TIP3    H239027   5.237   2.215   6.822  1.6201 -0.5397 -1.0947
 4306TIP3   OH239028   7.109   6.130   6.623  0.1112  0.3004 -0.0455
 4306TIP3    H139029   7.110   6.223   6.605 -0.7199  0.2719 -0.2833
 4306TIP3    H239030   7.185   6.095   6.575 -0.5791  0.6011 -1.3977
 4307TIP3   OH239031   2.649   3.996   0.413 -0.2072  0.7225 -0.3609
 4307TIP3    H139032   2.739   3.969   0.392  0.1534 -0.6639  2.4538
 4307TIP3    H239033   2.660   4.073   0.469 -0.7507  0.4610  0.1122
 4308TIP3   OH239034   3.626   3.619   0.657  0.1448 -0.4587 -0.3193
 4308TIP3    H139035   3.578   3.690   0.616 -2.1066 -0.8075  1.5109
 4308TIP3    H239036   3.652   3.562   0.585 -2.4397 -0.3529 -1.4247
 4309TIP3   OH239037   0.940   4.619   7.304 -0.1320  0.2691 -0.0123
 4309TIP3    H139038   0.866   4.656   7.255 -0.4893  0.0953  0.3845
 4309TIP3    H239039   0.906   4.609   7.393 -0.3941 -1.9520 -0.3071
 4310TIP3   OH239040   2.819   1.028   6.750  0.3087 -0.3160  0.0545
 4310TIP3    H139041   2.737   0.983   6.772  0.0588 -0.2172 -0.6550
 4310TIP3    H239042   2.838   1.082   6.826  0.4903 -1.4426  0.8347
 4311TIP3   OH239043   2.904   1.407   7.393  0.0780  0.1901  0.5474
 4311TIP3    H139044   2.980   1.466   7.396  0.9027 -0.8660  1.0400
 4311TIP3    H239045   2.835   1.456   7.437  0.2702  1.4357 -0.4755
 4312TIP3   OH239046   3.796   7.486   5.661 -0.8485  0.3092 -0.4747
 4312TIP3    H139047   3.755   7.562   5.619  0.3363  1.6133  0.6375
 4312TIP3    H239048   3.873   7.469   5.607  0.1070  1.3402  0.5015
 4313TIP3   OH239049   6.170   1.256   1.146  0.7698 -0.5652  0.0706
 4313TIP3    H139050   6.178   1.187   1.213 -0.3906 -0.8013 -0.0032
 4313TIP3    H239051   6.137   1.210   1.069 -1.4534  0.2632  0.4555
 4314TIP3   OH239052   5.905   0.290   7.780  0.0139  0.4096 -0.4917
 4314TIP3    H139053   5.999   0.276   7.772 -0.1199 -0.3991 -0.7389
 4314TIP3    H239054   5.896   0.383   7.799  0.7864  0.7947 -1.8594
 4315TIP3   OH239055   4.276   3.233   0.532  0.5234  0.7864 -0.1718
 4315TIP3    H139056   4.224   3.271   0.461  0.1790 -0.8384 -0.8420
 4315TIP3    H239057   4.363   3.219   0.493  1.1411  2.3480  0.5690
 4316TIP3   OH239058   5.164   4.225   7.891 -0.3625 -0.4481  0.4671
 4316TIP3    H139059   5.166   4.206   7.985 -0.3081  0.4839  0.6670
 4316TIP3    H239060   5.115   4.307   7.884  0.5701  0.0746 -0.1973
 4317TIP3   OH239061   1.732   3.539   6.780  0.5690 -0.1569  0.3441
 4317TIP3    H139062   1.727   3.474   6.710 -1.6884  0.9147 -0.6333
 4317TIP3    H239063   1.814   3.586   6.764  1.6448 -1.9460  0.3686
 4318TIP3   OH239064   2.508   5.536   1.144  0.3800  0.1749  0.5546
 4318TIP3    H139065   2.433   5.596   1.150  2.3750  2.9892 -0.4304
 4318TIP3    H239066   2.474   5.459   1.099 -2.0526  1.0748  0.7127
 4319TIP3   OH239067   3.288   2.689   2.199 -0.6921  0.1452  0.1845
 4319TIP3    H139068   3.258   2.614   2.148 -2.3690  1.3240 -0.6560
 4319TIP3    H239069   3.365   2.720   2.152 -0.3825 -0.6298  0.1640
 4320TIP3   OH239070   7.833   1.999   6.500  0.0178  0.7547 -0.3851
 4320TIP3    H139071   7.894   1.950   6.556  0.9922 -1.0425 -2.8270
 4320TIP3    H239072   7.889   2.058   6.450 -0.6930  1.5148 -0.3064
 4321TIP3   OH239073   2.897   2.099   1.659  0.2235  0.1505 -0.1058
 4321TIP3    H139074   2.891   2.003   1.656 -0.1001  0.1314  0.9462
 4321TIP3    H239075   2.823   2.126   1.713  0.6646  0.9595  0.1046
 4322TIP3   OH239076   0.149   4.296   7.795 -0.1197  0.3989  0.1890
 4322TIP3    H139077   0.232   4.262   7.764 -0.3092  0.6646 -0.6444
 4322TIP3    H239078   0.155   4.293   7.891 -0.0218 -1.6579  0.1497
 4323TIP3   OH239079   4.502   3.321   5.837 -0.3581 -0.0357  0.4000
 4323TIP3    H139080   4.504   3.416   5.822 -1.7803  0.1805  1.4490
 4323TIP3    H239081   4.424   3.291   5.790 -0.0053 -0.6796  0.2075
 4324TIP3   OH239082   3.337   4.069   0.146  0.1538 -0.0963  0.4779
 4324TIP3    H139083   3.408   4.133   0.144  0.2248 -0.1170  1.5569
 4324TIP3    H239084   3.344   4.022   0.063  0.1311  1.2521 -0.3122
 4325TIP3   OH239085   7.636   4.514   1.058 -0.3456  0.1599  0.0307
 4325TIP3    H139086   7.673   4.425   1.057 -1.3383 -0.3127  1.4480
 4325TIP3    H239087   7.642   4.544   0.967 -4.0461 -3.1191 -1.5917
 4326TIP3   OH239088   3.599   3.952   0.403 -0.3484 -0.0046 -0.3020
 4326TIP3    H139089   3.518   3.901   0.401 -0.2701 -0.2636  1.2781
 4326TIP3    H239090   3.615   3.968   0.496  2.2515 -1.3504 -0.4145
 4327TIP3   OH239091   7.131   3.443   1.022  0.0624 -0.2779 -0.2340
 4327TIP3    H139092   7.054   3.390   1.003 -0.9114  0.8002  0.6033
 4327TIP3    H239093   7.096   3.527   1.052  1.5134 -0.4900  2.3058
 4328TIP3   OH239094   3.375   2.617   7.845 -0.5814 -0.2821  0.1604
 4328TIP3    H139095   3.305   2.562   7.879 -1.4124  0.5123 -0.2158
 4328TIP3    H239096   3.400   2.575   7.762 -0.6963 -0.4971  0.2335
 4329TIP3   OH239097   1.571   5.591   1.626  0.6524  0.6583  0.1623
 4329TIP3    H139098   1.576   5.615   1.719 -0.0820  0.6943  0.2006
 4329TIP3    H239099   1.562   5.495   1.627  0.0568  0.7086  0.1611
 4330TIP3   OH239100   2.257   8.073   1.682 -0.0894 -0.3017  0.2071
 4330TIP3    H139101   2.169   8.061   1.718 -0.7256 -1.4031 -1.5748
 4330TIP3    H239102   2.278   7.988   1.643  0.8773  0.5677 -1.2507
 4331TIP3   OH239103   8.050   4.235   5.959 -0.7364  0.1495  0.0166
 4331TIP3    H139104   8.079   4.150   5.927 -2.2274 -0.3521 -0.0793
 4331TIP3    H239105   8.094   4.298   5.903 -0.7258 -0.6160 -0.8507
 4332TIP3   OH239106   2.095   0.277   6.716  0.1407 -0.0497 -0.1557
 4332TIP3    H139107   2.161   0.324   6.767 -1.1323 -0.2898  1.8204
 4332TIP3    H239108   2.030   0.343   6.695 -0.1323 -0.2889 -0.0642
 4333TIP3   OH239109   3.284   1.987   7.183 -0.2916 -0.4859 -0.4102
 4333TIP3    H139110   3.228   1.973   7.107 -0.6696  0.9021 -0.4288
 4333TIP3    H239111   3.260   2.075   7.214  0.8912 -0.4296  0.4239
 4334TIP3   OH239112   3.922   7.461   6.979  0.4947  0.1947 -0.5249
 4334TIP3    H139113   3.914   7.380   6.928 -0.5962 -0.6672  0.9109
 4334TIP3    H239114   3.987   7.440   7.046 -1.2110 -0.2729  1.0966
 4335TIP3   OH239115   1.435   6.274   0.070  0.6399 -0.0780 -0.9626
 4335TIP3    H139116   1.420   6.181   0.088 -0.0249  0.3246  0.7721
 4335TIP3    H239117   1.399   6.287  -0.018  1.5787 -1.6285 -1.6193
 4336TIP3   OH239118   7.271   4.173   0.117  0.0390  0.4482 -0.5597
 4336TIP3    H139119   7.228   4.152   0.200  0.8456  0.2200 -0.1893
 4336TIP3    H239120   7.363   4.152   0.131 -0.0609 -1.2475 -2.0744
 4337TIP3   OH239121   7.383   5.909   7.330  0.1291  0.5601  0.1002
 4337TIP3    H139122   7.376   5.815   7.314  0.6873  0.4581  0.4635
 4337TIP3    H239123   7.309   5.947   7.281 -1.2593 -0.2418  1.4858
 4338TIP3   OH239124   0.751   2.153   6.272 -0.2296 -0.2952  0.4054
 4338TIP3    H139125   0.774   2.234   6.318 -0.2035 -0.1610  0.1594
 4338TIP3    H239126   0.832   2.124   6.230 -0.2030 -0.5325  0.6177
 4339TIP3   OH239127   4.054   7.241   0.859  0.3497  0.0366  0.0683
 4339TIP3    H139128   4.028   7.152   0.837  0.0008  0.2105 -0.2556
 4339TIP3    H239129   4.149   7.238   0.868  0.3272 -0.3884  0.1653
 4340TIP3   OH239130   6.362   7.184   1.954  0.6992 -0.2515  0.0009
 4340TIP3    H139131   6.422   7.228   2.013  2.9857 -2.5638 -0.4110
 4340TIP3    H239132   6.288   7.157   2.009  0.7927  1.1932  0.8715
 4341TIP3   OH239133   2.003   5.760   7.210  0.1435 -0.4024  0.3667
 4341TIP3    H139134   2.038   5.836   7.255  1.9787 -2.1608  2.1542
 4341TIP3    H239135   1.910   5.760   7.230  0.4560  0.3311  1.9904
 4342TIP3   OH239136   1.879   2.720   5.535 -0.0617  0.1316 -0.0600
 4342TIP3    H139137   1.876   2.627   5.515  0.5558 -0.1280  0.9411
 4342TIP3    H239138   1.791   2.752   5.517 -0.4077 -0.7448  0.0202
 4343TIP3   OH239139   0.995   0.747   6.537  0.3572 -0.4581  0.0685
 4343TIP3    H139140   0.928   0.733   6.604 -0.1303 -1.3956 -0.5879
 4343TIP3    H239141   0.971   0.687   6.467  0.5926  0.8034 -1.1413
 4344TIP3   OH239142   4.710   0.081   6.338 -0.6150  0.2593 -0.5519
 4344TIP3    H139143   4.766   0.156   6.359  1.1425 -1.1771  0.2165
 4344TIP3    H239144   4.622   0.117   6.333 -0.3771  1.8525  3.3070
 4345TIP3   OH239145   2.709   6.464   0.720 -0.1532 -0.1271  0.2704
 4345TIP3    H139146   2.674   6.421   0.642 -2.5127  0.5783  0.8771
 4345TIP3    H239147   2.657   6.429   0.793  0.5195  0.8494  1.2615
 4346TIP3   OH239148   0.171   4.329   7.476 -0.0545 -0.1639 -0.3160
 4346TIP3    H139149   0.128   4.413   7.456 -1.2789 -0.8444 -0.6362
 4346TIP3    H239150   0.104   4.263   7.459  0.5575 -1.1508  0.9398
 4347TIP3   OH239151   4.283   7.543   0.936 -0.0286  0.6104  0.5782
 4347TIP3    H139152   4.207   7.597   0.960 -1.0009  0.1239 -1.2137
 4347TIP3    H239153   4.352   7.572   0.995 -1.2122  2.0761  1.3235
 4348TIP3   OH239154   5.691   1.338   7.744  0.7982 -0.2278  0.1299
 4348TIP3    H139155   5.682   1.418   7.795 -0.1195  1.1556 -2.0465
 4348TIP3    H239156   5.602   1.303   7.739  0.6197  0.3493 -1.4597
 4349TIP3   OH239157   4.741   4.566   1.061  0.4491  0.4165 -0.0237
 4349TIP3    H139158   4.770   4.475   1.069  1.2771  0.6855  0.1020
 4349TIP3    H239159   4.645   4.560   1.061  0.4698 -0.3719  1.0868
 4350TIP3   OH239160   7.937   3.388   7.642 -0.2692  0.6144 -0.4101
 4350TIP3    H139161   7.890   3.324   7.696  0.0354 -0.1298 -1.0246
 4350TIP3    H239162   8.020   3.401   7.687 -0.4397  0.7944 -0.1399
 4351TIP3   OH239163   3.355   0.248   6.184 -0.2941 -0.2683  0.5483
 4351TIP3    H139164   3.344   0.324   6.128 -0.3772  0.0772  1.0228
 4351TIP3    H239165   3.353   0.173   6.125 -3.2286 -0.1391  0.3224
 4352TIP3   OH239166   0.653   6.119   7.496 -0.5806 -0.3108 -0.5597
 4352TIP3    H139167   0.675   6.171   7.418  1.5756 -1.3831 -0.7463
 4352TIP3    H239168   0.579   6.164   7.535  0.4035  2.1924 -1.3852
 4353TIP3   OH239169   6.512   5.394   7.783  0.3481  0.7089  0.4256
 4353TIP3    H139170   6.564   5.316   7.803 -0.6449 -0.0432  0.1219
 4353TIP3    H239171   6.539   5.457   7.850  0.7999 -0.0535  0.9886
 4354TIP3   OH239172   2.192   4.660   0.155  0.0558 -0.5987  0.3633
 4354TIP3    H139173   2.098   4.644   0.158 -0.2959  0.9647 -0.8905
 4354TIP3    H239174   2.225   4.598   0.090 -0.2793 -0.4473  0.0476
 4355TIP3   OH239175   0.320   5.539   6.218  0.3303  0.3787  0.1351
 4355TIP3    H139176   0.284   5.628   6.217 -0.4666  0.0649 -0.3512
 4355TIP3    H239177   0.412   5.551   6.194  0.6097  1.2081  1.4905
 4356TIP3   OH239178   4.563   3.272   6.106 -0.2144  0.2779 -0.1801
 4356TIP3    H139179   4.615   3.350   6.088  1.4265 -0.6739  0.2395
 4356TIP3    H239180   4.529   3.245   6.021 -0.0278  0.9021 -0.4579
 4357TIP3   OH239181   7.221   3.206   7.222 -0.5788 -0.0349  0.1438
 4357TIP3    H139182   7.134   3.208   7.181 -0.7111 -1.3693  0.3188
 4357TIP3    H239183   7.264   3.285   7.189 -1.7794  0.5409 -0.1092
 4358TIP3   OH239184   0.785   5.273   0.579  0.0643  0.0456 -0.0767
 4358TIP3    H139185   0.752   5.362   0.597 -0.8442 -0.2615 -0.1466
 4358TIP3    H239186   0.878   5.285   0.561 -0.2165  1.0947 -0.9174
 4359TIP3   OH239187   2.952   2.679   1.559  0.4811  0.2392  0.5525
 4359TIP3    H139188   2.932   2.771   1.539 -0.4089 -0.4522 -2.0841
 4359TIP3    H239189   3.030   2.659   1.507  0.1633 -0.7343  0.4326
 4360TIP3   OH239190   4.287   1.241   0.949 -0.2511 -0.0660  0.3265
 4360TIP3    H139191   4.272   1.162   0.897  0.2443 -1.4275  2.1420
 4360TIP3    H239192   4.314   1.307   0.885  0.0050 -1.5508 -1.1679
 4361TIP3   OH239193   7.814   5.944   0.515  0.1919  0.5056 -0.4204
 4361TIP3    H139194   7.815   6.034   0.480  2.4285  0.7765  0.2177
 4361TIP3    H239195   7.906   5.918   0.518 -0.4049 -1.8840 -0.6748
 4362TIP3   OH239196   1.070   4.985   7.344  0.0272  1.1706  0.1197
 4362TIP3    H139197   0.975   4.978   7.330  0.0184 -0.9932  0.7909
 4362TIP3    H239198   1.105   5.009   7.259 -1.0682  1.2518 -0.3305
 4363TIP3   OH239199   1.499   0.353   1.066  0.1329 -0.7322  0.0405
 4363TIP3    H139200   1.504   0.308   0.982 -1.8404 -0.8173 -0.0805
 4363TIP3    H239201   1.439   0.426   1.051 -1.2950 -1.4852  1.6292
 4364TIP3   OH239202   5.808   2.752   0.860  0.2027  0.7716 -0.1250
 4364TIP3    H139203   5.882   2.807   0.887  1.0907  0.3701 -1.6524
 4364TIP3    H239204   5.730   2.802   0.888  0.9845  0.6250  2.6341
 4365TIP3   OH239205   0.734   1.701   7.447  0.1951  0.6819 -0.6903
 4365TIP3    H139206   0.680   1.761   7.498 -1.6580 -0.3173 -1.4059
 4365TIP3    H239207   0.789   1.759   7.393  0.9728  1.7243  1.1162
 4366TIP3   OH239208   2.172   5.912   6.375  0.4041  0.5566  0.4026
 4366TIP3    H139209   2.123   5.861   6.310  0.2799  1.8760 -0.5874
 4366TIP3    H239210   2.246   5.948   6.326  0.1769  1.7644  0.9234
 4367TIP3   OH239211   5.626   5.927   1.664  0.4478 -0.5248  0.5236
 4367TIP3    H139212   5.614   5.851   1.720 -1.6103 -0.0122  0.8540
 4367TIP3    H239213   5.567   5.912   1.590  0.6042  0.3819  0.1970
 4368TIP3   OH239214   7.981   1.887   1.164  0.1868  0.0002  0.1596
 4368TIP3    H139215   7.995   1.809   1.110  3.7865 -0.8478  2.0134
 4368TIP3    H239216   7.967   1.853   1.252 -0.4830  1.4501  0.6387
 4369TIP3   OH239217   3.962   4.589   7.239 -0.2150  0.0204  0.0011
 4369TIP3    H139218   3.963   4.602   7.144 -0.2485  0.0557  0.0056
 4369TIP3    H239219   3.893   4.524   7.254  1.3072 -1.7362 -0.2118
 4370TIP3   OH239220   1.042   5.194   0.851 -0.5337 -0.2917  0.3922
 4370TIP3    H139221   0.989   5.271   0.869 -1.0751 -0.4819 -0.3500
 4370TIP3    H239222   1.069   5.163   0.937 -3.5031 -1.5039  1.0001
 4371TIP3   OH239223   0.751   6.792   7.813 -0.4965 -0.5493 -0.1660
 4371TIP3    H139224   0.723   6.842   7.889  1.1690  1.0117 -0.5168
 4371TIP3    H239225   0.732   6.850   7.738  0.8604 -0.6886 -0.6404
 4372TIP3   OH239226   6.669   6.407   7.546 -0.2659 -0.3362  0.1604
 4372TIP3    H139227   6.730   6.392   7.618 -1.0399 -0.5708  0.7745
 4372TIP3    H239228   6.582   6.396   7.585 -0.8349  2.6455 -0.0182
 4373TIP3   OH239229   4.212   1.132   7.679 -0.1542  0.2128 -0.1220
 4373TIP3    H139230   4.152   1.197   7.716  0.8190  0.7697  0.5192
 4373TIP3    H239231   4.173   1.048   7.703  1.0494  0.5045  3.4091
 4374TIP3   OH239232   0.316   3.168   7.238  0.2394  0.0365 -0.2240
 4374TIP3    H139233   0.277   3.136   7.156 -1.4055  0.1697  0.4748
 4374TIP3    H239234   0.248   3.222   7.277  1.1758  0.3406  1.0314
 4375TIP3   OH239235   2.087   1.382   7.656 -0.0344 -0.7493  0.8141
 4375TIP3    H139236   2.016   1.318   7.661  0.0354 -1.1877 -1.8973
 4375TIP3    H239237   2.165   1.330   7.638  1.3360 -0.3781  4.7740
 4376TIP3   OH239238   1.954   7.261   0.920  0.8790 -0.1915 -0.4387
 4376TIP3    H139239   1.911   7.175   0.919  0.5254 -0.0207 -1.6943
 4376TIP3    H239240   1.882   7.323   0.934  0.9651 -0.0250 -0.7345
 4377TIP3   OH239241   0.584   7.537   6.419 -0.2414 -0.4887  0.0666
 4377TIP3    H139242   0.506   7.556   6.472 -0.3643 -1.2466  0.1705
 4377TIP3    H239243   0.631   7.620   6.416 -1.5193  0.2478 -0.7756
 4378TIP3   OH239244   6.497   1.615   7.716 -0.5430  0.3451 -0.0985
 4378TIP3    H139245   6.563   1.653   7.658  0.0553  1.6568  1.3549
 4378TIP3    H239246   6.544   1.550   7.768 -0.9852 -0.5501 -0.8107
 4379TIP3   OH239247   1.221   8.032   1.936  0.0165 -0.4689 -0.2583
 4379TIP3    H139248   1.149   8.090   1.910  0.5548 -0.5321 -2.0509
 4379TIP3    H239249   1.186   7.944   1.925  0.4050 -0.5032 -1.3493
 4380TIP3   OH239250   1.041   5.980   7.854 -0.1051 -0.2425 -0.3080
 4380TIP3    H139251   1.093   6.036   7.913 -0.4192  0.2140 -0.4559
 4380TIP3    H239252   1.054   5.892   7.887  0.5331 -0.1026 -0.1618
 4381TIP3   OH239253   5.603   7.606   0.807 -0.8693  0.0077 -0.1803
 4381TIP3    H139254   5.617   7.579   0.717 -1.8714 -0.0171 -0.3338
 4381TIP3    H239255   5.688   7.640   0.835 -1.0822  2.1140 -1.8496
 4382TIP3   OH239256   2.660   3.894   6.456  0.0955 -0.4927 -0.4864
 4382TIP3    H139257   2.656   3.834   6.531 -0.3050 -0.5371 -0.5373
 4382TIP3    H239258   2.731   3.954   6.477 -0.0068 -0.5108 -0.0722
 4383TIP3   OH239259   5.125   2.027   0.657  0.0229 -0.1397 -0.0743
 4383TIP3    H139260   5.062   1.980   0.603 -0.6178  1.4008 -0.7304
 4383TIP3    H239261   5.102   2.119   0.647  1.5616  0.3814  0.7277
 4384TIP3   OH239262   7.022   4.425   7.188 -0.1521  0.2168 -0.0757
 4384TIP3    H139263   7.018   4.441   7.282 -1.1128  0.0059 -0.0715
 4384TIP3    H239264   6.931   4.406   7.163  0.3522 -1.4556 -0.7376
 4385TIP3   OH239265   0.825   6.501   1.524  0.1106 -0.1670 -0.6168
 4385TIP3    H139266   0.794   6.525   1.437 -0.4243  1.9686  0.1057
 4385TIP3    H239267   0.778   6.559   1.584  2.0990  0.0061  0.9115
 4386TIP3   OH239268   4.981   0.432   1.588 -0.7475  0.8070  0.3567
 4386TIP3    H139269   5.017   0.440   1.676 -0.1461  2.1424  0.0090
 4386TIP3    H239270   5.039   0.485   1.533 -1.1945  0.1176 -0.8258
 4387TIP3   OH239271   1.253   2.460   0.873 -0.0825  0.0519  0.1174
 4387TIP3    H139272   1.160   2.442   0.888  0.1919 -1.3780  0.2540
 4387TIP3    H239273   1.291   2.375   0.850  1.5267  0.2702  1.7394
 4388TIP3   OH239274   0.601   5.380   0.003 -0.5533  0.5476  0.1237
 4388TIP3    H139275   0.561   5.293  -0.001 -0.6153  0.6100 -2.0877
 4388TIP3    H239276   0.532   5.437   0.036 -0.5900 -0.1584  1.3501
 4389TIP3   OH239277   4.425   0.940   6.675 -0.0782  0.2426  0.1598
 4389TIP3    H139278   4.454   1.011   6.619 -2.7637  0.2466 -1.3828
 4389TIP3    H239279   4.415   0.865   6.617 -2.9710  0.2495  0.4589
 4390TIP3   OH239280   6.202   4.050   6.445 -0.1211  0.9464 -0.0003
 4390TIP3    H139281   6.278   4.053   6.504  1.6385  1.2375 -2.1303
 4390TIP3    H239282   6.197   4.138   6.407 -1.3850  0.8517 -0.0919
 4391TIP3   OH239283   1.017   1.998   7.938 -0.4264  0.0129  0.6401
 4391TIP3    H139284   0.977   2.022   8.022 -1.4706  3.5391 -0.7076
 4391TIP3    H239285   0.945   2.004   7.875  0.6597 -1.1033 -0.7495
 4392TIP3   OH239286   2.205   2.348   0.938  0.1933  0.1520 -0.2417
 4392TIP3    H139287   2.189   2.357   1.032 -1.7572 -0.1981 -0.5076
 4392TIP3    H239288   2.120   2.364   0.897  0.8346 -0.4669 -1.9154
 4393TIP3   OH239289   0.245   1.576   7.517  0.2107 -0.5128 -0.2519
 4393TIP3    H139290   0.276   1.495   7.478 -0.9172 -1.5595  0.9269
 4393TIP3    H239291   0.311   1.598   7.583  0.3739 -0.6089 -0.3813
 4394TIP3   OH239292   2.732   5.156   7.622  0.0870  0.0622 -0.2818
 4394TIP3    H139293   2.809   5.209   7.602  0.2428 -0.8055 -2.2483
 4394TIP3    H239294   2.755   5.109   7.703  1.6827 -0.2704 -0.9005
 4395TIP3   OH239295   1.015   1.436   7.801 -0.2646 -0.0722  0.1503
 4395TIP3    H139296   1.096   1.486   7.808 -0.0683 -0.3955  0.1613
 4395TIP3    H239297   0.965   1.482   7.733  0.1772 -0.2163 -0.2795
 4396TIP3   OH239298   6.164   6.972   6.538  0.5360  0.1270  0.1108
 4396TIP3    H139299   6.073   6.971   6.568  0.3930 -1.4672 -0.3081
 4396TIP3    H239300   6.159   6.994   6.446  0.8361  3.0244  0.7023
 4397TIP3   OH239301   6.875   0.245   6.523 -0.4299  0.0106  0.4170
 4397TIP3    H139302   6.789   0.220   6.557 -0.9292  1.5015  0.3348
 4397TIP3    H239303   6.935   0.232   6.597 -0.9311  0.0879  0.8440
 4398TIP3   OH239304   0.641   4.176   5.710  0.0494 -0.2599 -0.1828
 4398TIP3    H139305   0.718   4.121   5.722  0.0029 -0.2333  0.2946
 4398TIP3    H239306   0.660   4.254   5.763  0.3723  0.4468 -1.3222
 4399TIP3   OH239307   8.006   0.453   0.157  1.1308  0.4512  0.1117
 4399TIP3    H139308   8.057   0.412   0.086  1.8807 -0.2726  1.0347
 4399TIP3    H239309   8.070   0.466   0.227  0.4583  1.4068  0.5674
 4400TIP3   OH239310   5.957   5.845   6.379 -0.3570 -0.0493 -0.0448
 4400TIP3    H139311   5.961   5.923   6.433  0.0091 -0.1876  0.1360
 4400TIP3    H239312   5.936   5.774   6.441  0.9321 -0.3474  0.0801
 4401TIP3   OH239313   4.218   1.380   2.250 -0.3478 -0.1363  0.1295
 4401TIP3    H139314   4.152   1.310   2.249 -0.1491 -0.3574  1.0882
 4401TIP3    H239315   4.167   1.460   2.236 -0.5586 -0.4629 -1.1220
 4402TIP3   OH239316   2.328   2.687   6.977 -0.1003  0.5552  0.0440
 4402TIP3    H139317   2.399   2.719   6.921 -1.1365  1.3737 -0.8751
 4402TIP3    H239318   2.316   2.756   7.042  0.1556  0.2694  0.3953
 4403TIP3   OH239319   3.362   0.980   7.742  0.6200  0.1392 -1.0814
 4403TIP3    H139320   3.302   0.909   7.719  0.3563 -0.8122  2.0547
 4403TIP3    H239321   3.307   1.058   7.746  0.7270  0.4349 -3.5401
 4404TIP3   OH239322   6.522   4.082   1.384  0.1298  0.1133  0.4849
 4404TIP3    H139323   6.565   4.106   1.302  0.5149 -0.2923  0.5608
 4404TIP3    H239324   6.432   4.112   1.374  0.1244 -0.1067 -0.1635
 4405TIP3   OH239325   4.676   3.503   6.007 -0.7349  0.2401 -0.4970
 4405TIP3    H139326   4.691   3.512   5.912  0.5541  2.0507 -0.1860
 4405TIP3    H239327   4.701   3.588   6.043  1.8762 -1.3214  1.8246
 4406TIP3   OH239328   3.842   4.021   0.120  0.1230 -0.1540 -0.0479
 4406TIP3    H139329   3.833   4.075   0.198  0.3554  0.7559 -0.6312
 4406TIP3    H239330   3.784   4.062   0.055  1.9172  0.7407 -1.1807
 4407TIP3   OH239331   7.115   4.562   6.484 -0.0779  0.2453 -0.0978
 4407TIP3    H139332   7.091   4.647   6.447  1.2802  0.6728 -0.0437
 4407TIP3    H239333   7.156   4.583   6.568  0.9310 -0.3979 -0.4141
 4408TIP3   OH239334   0.312   4.684   7.777  0.3984  0.8302  0.0693
 4408TIP3    H139335   0.345   4.735   7.703  0.7930  2.3924  1.2455
 4408TIP3    H239336   0.231   4.644   7.745 -0.5925  3.2062 -0.6265
 4409TIP3   OH239337   6.145   4.427   7.882  0.2714  0.2852  0.0355
 4409TIP3    H139338   6.064   4.466   7.850 -0.0448 -1.0489 -0.8741
 4409TIP3    H239339   6.164   4.357   7.819  1.8049  0.1842  0.5717
 4410TIP3   OH239340   6.000   2.827   1.828 -0.1651 -0.3274  0.3322
 4410TIP3    H139341   6.024   2.806   1.918 -0.3054 -0.1609  0.4096
 4410TIP3    H239342   6.074   2.796   1.776  1.0780  1.7579  0.7247
 4411TIP3   OH239343   3.952   1.217   1.671  0.1487  0.0386 -0.2278
 4411TIP3    H139344   3.863   1.203   1.703  0.1119  1.4024  0.3371
 4411TIP3    H239345   3.993   1.273   1.737  1.7466 -1.3189 -0.0012
 4412TIP3   OH239346   1.746   1.584   6.780  0.4714  0.1683 -0.1523
 4412TIP3    H139347   1.664   1.610   6.737  0.5792  0.1156 -0.3945
 4412TIP3    H239348   1.788   1.525   6.717 -0.9348 -2.6277  1.3598
 4413TIP3   OH239349   0.592   0.117   5.608  0.1596 -0.6831  0.0258
 4413TIP3    H139350   0.535   0.091   5.537 -1.0358  0.0460  0.6847
 4413TIP3    H239351   0.609   0.036   5.657 -1.6897 -0.6578  0.7758
 4414TIP3   OH239352   3.961   2.799   1.754  0.4693 -0.5876 -0.2325
 4414TIP3    H139353   3.955   2.704   1.760 -0.2654 -0.6131 -1.1683
 4414TIP3    H239354   4.048   2.815   1.717  0.9741 -0.8320  0.7882
 4415TIP3   OH239355   1.977   6.494   7.421  0.1002  0.4290  0.2521
 4415TIP3    H139356   1.955   6.555   7.351 -0.0918 -0.8124 -0.8112
 4415TIP3    H239357   1.904   6.432   7.423  0.5410 -0.0859  0.9279
 4416TIP3   OH239358   1.048   3.777   6.136 -0.1314 -0.0333  0.6824
 4416TIP3    H139359   1.134   3.811   6.109 -0.7083  0.9020 -0.0178
 4416TIP3    H239360   1.008   3.849   6.184 -1.3304  0.2799 -0.7269
 4417TIP3   OH239361   7.709   5.661   7.844  0.5634 -0.0319  0.2508
 4417TIP3    H139362   7.629   5.701   7.879  0.0213 -0.1126 -0.8542
 4417TIP3    H239363   7.748   5.730   7.790  0.8269 -0.2446  0.1703
 4418TIP3   OH239364   1.102   2.654   1.399 -0.3856 -0.0814  0.0889
 4418TIP3    H139365   1.172   2.699   1.351 -0.7732  0.5168  0.0713
 4418TIP3    H239366   1.065   2.722   1.456 -1.9107  0.0107 -0.9490
 4419TIP3   OH239367   3.167   4.751   2.112 -0.1917  0.0606  0.0669
 4419TIP3    H139368   3.076   4.775   2.126  0.2168  1.5050  0.3845
 4419TIP3    H239369   3.192   4.797   2.032  0.5481  0.5569  0.5684
 4420TIP3   OH239370   1.473   2.539   1.041  0.2912 -0.6815  0.0429
 4420TIP3    H139371   1.404   2.505   0.984 -1.1250  1.0226  0.6685
 4420TIP3    H239372   1.441   2.524   1.130  0.6713  0.2268  0.3381
 4421TIP3   OH239373   5.429   2.859   0.350  0.3097 -0.2986  0.0148
 4421TIP3    H139374   5.416   2.940   0.399  0.9080  0.1701 -0.5868
 4421TIP3    H239375   5.514   2.870   0.308 -1.1249  0.3301 -3.0127
 4422TIP3   OH239376   6.498   4.654   6.015  0.4740  0.2393  0.0999
 4422TIP3    H139377   6.488   4.728   5.956  1.0378  1.5765  1.6309
 4422TIP3    H239378   6.586   4.620   5.996  1.3419  1.7251  1.2909
 4423TIP3   OH239379   0.954   0.572   7.914 -0.1584  0.3329  0.7346
 4423TIP3    H139380   1.018   0.553   7.983 -1.6691 -2.1531  1.6012
 4423TIP3    H239381   0.914   0.655   7.940 -0.1906 -0.1980  2.5329
 4424TIP3   OH239382   3.736   7.738   7.871 -0.3782 -0.0137 -0.0451
 4424TIP3    H139383   3.645   7.714   7.890 -0.1806 -0.6937  0.0806
 4424TIP3    H239384   3.780   7.654   7.856 -0.1383  0.3772 -1.8019
 4425TIP3   OH239385   0.430   1.154   6.487 -0.5201  0.3383  0.1340
 4425TIP3    H139386   0.348   1.117   6.519  0.0427 -2.4217 -1.3188
 4425TIP3    H239387   0.405   1.201   6.408 -0.8592  0.5935  0.3873
 4426TIP3   OH239388   3.773   1.354   6.085  0.6713  0.3310 -0.2589
 4426TIP3    H139389   3.757   1.442   6.052  2.3834  1.0883  0.7791
 4426TIP3    H239390   3.868   1.344   6.082  0.5572 -1.2348  0.2706
 4427TIP3   OH239391   7.258   5.706   0.164 -0.1660 -0.3619 -0.4174
 4427TIP3    H139392   7.284   5.630   0.216  0.8190 -0.2629 -0.7446
 4427TIP3    H239393   7.276   5.781   0.221 -1.8509 -0.3695  0.2035
 4428TIP3   OH239394   1.581   7.649   1.230 -0.1464  0.2320 -0.1821
 4428TIP3    H139395   1.629   7.699   1.163  0.8243  0.5147  0.7052
 4428TIP3    H239396   1.581   7.559   1.197  0.5216  0.3288 -0.4497
 4429TIP3   OH239397   0.248   4.629   1.480 -0.2836  0.0676  0.1129
 4429TIP3    H139398   0.293   4.545   1.490 -0.9194 -0.2089  0.7251
 4429TIP3    H239399   0.188   4.615   1.406  0.0360  0.1764 -0.1701
 4430TIP3   OH239400   0.791   2.898   6.774  0.1659  0.1725 -0.1195
 4430TIP3    H139401   0.772   2.806   6.758  0.4016  0.2410 -0.8208
 4430TIP3    H239402   0.880   2.899   6.810  0.7205  0.2244 -1.4426
 4431TIP3   OH239403   7.430   7.307   0.934  0.2068 -0.5217  0.3867
 4431TIP3    H139404   7.351   7.309   0.988  0.4044 -0.2846  0.6630
 4431TIP3    H239405   7.405   7.353   0.853 -0.5329 -2.1176 -0.3302
 4432TIP3   OH239406   0.827   3.860   1.054  0.0247  0.2592 -0.3574
 4432TIP3    H139407   0.860   3.790   0.997  2.4506  0.8898  0.1919
 4432TIP3    H239408   0.780   3.813   1.124  2.1886 -0.9205  0.3850
 4433TIP3   OH239409   1.981   6.459   0.118 -0.5341 -0.4573 -0.0712
 4433TIP3    H139410   1.892   6.426   0.128  0.5752 -3.3723  1.6215
 4433TIP3    H239411   2.018   6.409   0.045  0.0617 -0.2084  0.0497
 4434TIP3   OH239412   4.730   5.388   5.845  0.3076 -0.5785  0.5844
 4434TIP3    H139413   4.761   5.346   5.764 -1.1920 -0.8656  0.1274
 4434TIP3    H239414   4.640   5.356   5.855  0.4115 -0.4186  2.2905
 4435TIP3   OH239415   5.953   3.651   1.286 -0.4341  0.5144  0.5893
 4435TIP3    H139416   6.015   3.662   1.359 -1.7731 -0.4986  1.9248
 4435TIP3    H239417   5.990   3.705   1.216  1.3927  0.7884  1.6874
 4436TIP3   OH239418   7.673   2.189   6.622  0.0588  0.0237  0.4679
 4436TIP3    H139419   7.625   2.203   6.540 -0.0096  0.0964  0.5195
 4436TIP3    H239420   7.726   2.111   6.607  0.6762  0.5111  0.0728
 4437TIP3   OH239421   6.081   2.157   0.515  0.2911 -0.0315 -0.3314
 4437TIP3    H139422   6.035   2.188   0.437  0.0180  0.9402  0.2037
 4437TIP3    H239423   6.014   2.109   0.564  0.1538  0.3700 -0.1246
 4438TIP3   OH239424   5.751   2.674   6.366  0.4861  0.0397 -0.3675
 4438TIP3    H139425   5.790   2.744   6.419  2.6939 -1.1515 -0.3152
 4438TIP3    H239426   5.745   2.599   6.425  0.0560 -0.4168 -0.9735
 4439TIP3   OH239427   7.077   6.376   0.209  0.0378  0.4398 -0.5800
 4439TIP3    H139428   7.095   6.398   0.117 -0.0900  0.9858 -0.4762
 4439TIP3    H239429   6.982   6.371   0.214  0.0279  0.8934 -0.3632
 4440TIP3   OH239430   3.455   1.848   1.965  0.1019  0.5134 -0.6375
 4440TIP3    H139431   3.386   1.832   2.029  0.4333  2.1505  0.1861
 4440TIP3    H239432   3.536   1.831   2.012  0.3159  0.3012 -1.0754
 4441TIP3   OH239433   2.410   2.052   6.930  0.1157 -0.3295  0.9214
 4441TIP3    H139434   2.333   2.017   6.886 -0.1349  0.9212  0.3145
 4441TIP3    H239435   2.467   2.081   6.859 -0.2522  1.6325  1.3720
 4442TIP3   OH239436   5.601   7.896   2.324 -0.5257 -0.2467  0.2255
 4442TIP3    H139437   5.548   7.879   2.402  0.3887 -1.9324  0.5364
 4442TIP3    H239438   5.629   7.987   2.334 -1.2599 -0.1147  1.3475
 4443TIP3   OH239439   6.432   3.231   7.106 -0.3605  0.7115 -0.1011
 4443TIP3    H139440   6.496   3.168   7.074  0.3075  0.9389  0.7417
 4443TIP3    H239441   6.370   3.179   7.156 -0.6430  0.5365 -0.6265
 4444TIP3   OH239442   4.808   2.942   6.777 -0.4401  0.0753  0.5479
 4444TIP3    H139443   4.759   2.950   6.695 -1.0041  0.7649  0.9437
 4444TIP3    H239444   4.745   2.908   6.840 -0.2363  0.3405  0.8995
 4445TIP3   OH239445   4.729   0.556   1.860  0.7035  0.4052  0.0234
 4445TIP3    H139446   4.807   0.591   1.904  0.6466 -0.9149  1.2379
 4445TIP3    H239447   4.736   0.462   1.871 -1.3601  0.2820  0.6476
 4446TIP3   OH239448   5.408   7.999   0.338  0.2241 -0.2706  0.5585
 4446TIP3    H139449   5.455   7.940   0.397 -0.8388 -1.2733  0.4275
 4446TIP3    H239450   5.414   7.956   0.252 -3.0841 -1.8194  0.9495
 4447TIP3   OH239451   0.043   3.540   6.959 -0.2854 -0.1475  0.0943
 4447TIP3    H139452  -0.020   3.608   6.983 -1.5572 -1.7400  1.5004
 4447TIP3    H239453  -0.009   3.472   6.916  0.6564 -0.9963  0.2494
 4448TIP3   OH239454   2.802   4.250   1.535 -0.1953  0.5001 -0.5004
 4448TIP3    H139455   2.753   4.170   1.517  0.8337 -0.2280 -0.1396
 4448TIP3    H239456   2.832   4.279   1.448  0.3034 -0.0980 -0.5425
 4449TIP3   OH239457   5.583   0.821   7.791  0.0969 -0.1427 -0.3372
 4449TIP3    H139458   5.617   0.831   7.702  0.1501 -0.0365 -0.3050
 4449TIP3    H239459   5.660   0.827   7.848 -0.1202  1.5221 -0.1673
 4450TIP3   OH239460   1.912   6.058   2.335 -0.4246 -0.7818  0.1187
 4450TIP3    H139461   1.899   6.018   2.250  0.2784  1.6055 -1.2024
 4450TIP3    H239462   1.835   6.113   2.348  1.1518  1.8192 -0.8353
 4451TIP3   OH239463   4.879   5.050   7.189  0.2911  0.1325 -0.2819
 4451TIP3    H139464   4.960   5.019   7.148  0.5023  0.5489 -0.1940
 4451TIP3    H239465   4.883   5.145   7.179  1.2747  0.4699  2.3412
 4452TIP3   OH239466   4.942   2.251   1.744  0.6210  0.4830 -0.0753
 4452TIP3    H139467   4.900   2.329   1.779  0.6176  0.7501 -0.6579
 4452TIP3    H239468   4.962   2.198   1.820 -1.3900  0.0297  0.2092
 4453TIP3   OH239469   3.963   4.271   7.354  0.5325 -0.0990  0.1515
 4453TIP3    H139470   3.868   4.277   7.365  0.2008  0.8235 -2.4449
 4453TIP3    H239471   3.999   4.324   7.424 -0.8500 -0.6005  1.2788
 4454TIP3   OH239472   2.346   4.859   7.643  0.4327  0.6217 -0.3530
 4454TIP3    H139473   2.421   4.906   7.679 -0.3858  0.9852  0.9587
 4454TIP3    H239474   2.285   4.850   7.717 -0.0660 -1.2349 -0.9373
 4455TIP3   OH239475   7.151   1.898   7.893  0.1200 -0.7078  0.0432
 4455TIP3    H139476   7.140   1.855   7.977  0.3319  0.0278  0.4591
 4455TIP3    H239477   7.213   1.969   7.910 -0.9837  0.4057 -0.3841
 4456TIP3   OH239478   6.037   6.135   7.916  0.1145 -0.1856  0.1120
 4456TIP3    H139479   5.992   6.057   7.947 -0.6533  0.6422  1.1430
 4456TIP3    H239480   6.063   6.114   7.826 -1.7241 -0.9350 -0.2865
 4457TIP3   OH239481   1.153   0.890   2.139 -0.4313 -0.6423  0.6143
 4457TIP3    H139482   1.060   0.907   2.153 -0.7325 -1.3813 -0.3527
 4457TIP3    H239483   1.190   0.974   2.113 -0.9151 -0.4387  0.5819
 4458TIP3   OH239484   4.838   4.154   0.773  0.0989  0.1059  0.3156
 4458TIP3    H139485   4.769   4.210   0.809  2.0076  3.0991 -0.3435
 4458TIP3    H239486   4.872   4.106   0.848  0.5757  2.3494  1.6094
 4459TIP3   OH239487   0.380   3.604   7.208  0.2791  0.2910  0.2602
 4459TIP3    H139488   0.320   3.671   7.241  0.9091  1.2167 -0.4276
 4459TIP3    H239489   0.449   3.600   7.274  0.3072  0.4152  0.2391
 4460TIP3   OH239490   1.447   6.623   7.605  0.2239 -0.3027  0.2855
 4460TIP3    H139491   1.495   6.700   7.576 -0.7544 -0.2581 -1.3382
 4460TIP3    H239492   1.416   6.645   7.693 -1.6935  2.0192 -0.8401
 4461TIP3   OH239493   6.357   1.828   7.841  0.8344 -0.0728  0.3104
 4461TIP3    H139494   6.381   1.751   7.789  0.7859  0.0436  0.1161
 4461TIP3    H239495   6.422   1.831   7.911  1.2059  0.0731 -0.0432
 4462TIP3   OH239496   6.740   4.437   1.272 -0.0845  0.5900  0.5482
 4462TIP3    H139497   6.651   4.446   1.306  0.2732  2.9620  0.9891
 4462TIP3    H239498   6.749   4.507   1.208  0.6256 -1.2834 -1.5609
 4463TIP3   OH239499   4.040   1.251   0.558 -0.2229 -0.1563  0.5705
 4463TIP3    H139500   4.103   1.214   0.620 -1.8000  0.1249  2.4422
 4463TIP3    H239501   3.985   1.177   0.533  0.4483 -0.2808 -0.5845
 4464TIP3   OH239502   3.475   4.223   5.647 -0.4106  0.2773 -0.0260
 4464TIP3    H139503   3.400   4.235   5.706  0.9562  0.5642  1.7482
 4464TIP3    H239504   3.489   4.128   5.645  0.1211  0.3188  0.9411
 4465TIP3   OH239505   3.065   3.329   1.561 -0.3961  0.3683  0.6298
 4465TIP3    H139506   3.118   3.277   1.500  1.6347  0.0669  2.5384
 4465TIP3    H239507   2.976   3.323   1.526  0.5305 -0.5149 -1.7777
 4466TIP3   OH239508   4.878   1.387   0.814  0.1926 -0.0210  0.5110
 4466TIP3    H139509   4.881   1.296   0.782 -0.7590 -0.0861  0.5875
 4466TIP3    H239510   4.949   1.431   0.766 -0.4436 -0.3979 -0.8396
 4467TIP3   OH239511   5.923   3.905   7.176 -0.4194 -0.0248 -0.0705
 4467TIP3    H139512   5.870   3.849   7.232 -1.0582  0.0687 -0.5702
 4467TIP3    H239513   5.927   3.989   7.222 -1.5070  0.2614 -0.4659
 4468TIP3   OH239514   6.894   0.551   2.618  0.7642  0.0915 -0.1233
 4468TIP3    H139515   6.839   0.541   2.696 -1.0098 -0.3870 -1.3717
 4468TIP3    H239516   6.838   0.594   2.554  2.0612  0.1529 -1.2738
 4469TIP3   OH239517   7.869   6.871   7.191 -0.2750  0.1019  0.0344
 4469TIP3    H139518   7.864   6.788   7.144 -0.0047  0.2646 -0.2896
 4469TIP3    H239519   7.938   6.857   7.256 -0.1927  0.0891 -0.0556
 4470TIP3   OH239520   0.860   0.320   0.353 -0.1719 -0.3482  0.4973
 4470TIP3    H139521   0.767   0.340   0.363  0.0801  1.6329 -0.6647
 4470TIP3    H239522   0.905   0.399   0.384  1.1868 -1.5216  1.6722
 4471TIP3   OH239523   6.187   4.625   0.746 -0.2411 -0.3653 -0.1830
 4471TIP3    H139524   6.235   4.561   0.693 -0.0435  0.3595 -0.9038
 4471TIP3    H239525   6.186   4.704   0.692 -0.3601  0.2830  0.7551
 4472TIP3   OH239526   6.628   5.157   6.544 -0.1925  0.2517  0.2096
 4472TIP3    H139527   6.655   5.224   6.481  0.3385 -0.7203 -0.6499
 4472TIP3    H239528   6.710   5.126   6.582 -0.2718 -0.9724 -0.5535
 4473TIP3   OH239529   2.766   6.431   7.802 -0.3525 -0.0486 -0.2249
 4473TIP3    H139530   2.842   6.433   7.744  1.2246 -0.5963  1.7163
 4473TIP3    H239531   2.735   6.340   7.797 -0.6238  0.0666 -0.6850
 4474TIP3   OH239532   3.416   4.749   7.232 -0.1735  0.1754  0.3675
 4474TIP3    H139533   3.393   4.683   7.166 -1.8932  0.6294  0.4813
 4474TIP3    H239534   3.499   4.717   7.269 -0.8496 -1.8195  0.2773
 4475TIP3   OH239535   6.434   1.266   5.992  0.1636 -0.2596  0.1233
 4475TIP3    H139536   6.395   1.235   5.911 -0.8743 -1.8246  1.1543
 4475TIP3    H239537   6.369   1.327   6.028  0.3604 -0.0207  0.0815
 4476TIP3   OH239538   5.189   1.453   7.419  0.0678 -0.0492 -0.2082
 4476TIP3    H139539   5.263   1.512   7.434  0.2347 -0.4184  0.4482
 4476TIP3    H239540   5.151   1.483   7.337  0.7737  0.3254 -0.4072
 4477TIP3   OH239541   6.679   4.165   1.165 -0.3225 -0.0279 -0.5288
 4477TIP3    H139542   6.723   4.137   1.085 -0.1936  0.6502 -0.7070
 4477TIP3    H239543   6.729   4.241   1.194 -0.6411  0.0044 -0.0553
 4478TIP3   OH239544   7.803   5.875   7.705 -0.4472 -0.4458  0.3277
 4478TIP3    H139545   7.826   5.951   7.758  0.4578 -0.7808  0.4490
 4478TIP3    H239546   7.735   5.906   7.645  0.7135  0.7832 -0.4204
 4479TIP3   OH239547   3.839   1.301   0.745  0.2854  0.1346  0.3432
 4479TIP3    H139548   3.899   1.294   0.671  1.8960  1.6365  1.4230
 4479TIP3    H239549   3.854   1.222   0.797  0.8458  0.1757  0.2460
 4480TIP3   OH239550   4.682   8.086   1.829  0.1722  0.2227  0.5212
 4480TIP3    H139551   4.761   8.121   1.871  0.3279 -1.0042  1.3233
 4480TIP3    H239552   4.667   8.003   1.874 -1.3079  0.2125  0.0457
 4481TIP3   OH239553   5.395   4.089   7.834  0.3632 -0.4192  0.1432
 4481TIP3    H139554   5.459   4.091   7.906  0.4296  0.7540  0.0594
 4481TIP3    H239555   5.319   4.135   7.869  0.7995  1.1523 -0.9046
 4482TIP3   OH239556   7.992   0.138   5.937  0.2913 -0.6899  0.1431
 4482TIP3    H139557   8.025   0.096   6.016  0.4819 -0.4063  0.2141
 4482TIP3    H239558   8.046   0.102   5.867  0.9442 -0.0327  0.2886
 4483TIP3   OH239559   0.749   4.518   1.573 -0.3858  0.0068 -1.0102
 4483TIP3    H139560   0.732   4.501   1.481 -0.1452  0.2383 -1.0985
 4483TIP3    H239561   0.779   4.434   1.608 -2.2725 -0.5953 -0.6958
 4484TIP3   OH239562   1.009   6.898   1.377  0.2911 -0.2312 -0.2077
 4484TIP3    H139563   1.016   6.933   1.288 -1.8413 -0.4225 -0.5115
 4484TIP3    H239564   1.090   6.849   1.391  0.5577 -0.3981 -2.1290
 4485TIP3   OH239565   1.126   6.419   0.848  0.0815  0.0652 -0.1830
 4485TIP3    H139566   1.165   6.404   0.934  0.1469 -0.2463 -0.2655
 4485TIP3    H239567   1.037   6.449   0.868  0.1281  0.0889 -0.0056
 4486TIP3   OH239568   6.600   0.247   0.904 -0.2483 -0.0119 -0.2325
 4486TIP3    H139569   6.548   0.168   0.919  0.3322  0.0699  2.6717
 4486TIP3    H239570   6.535   0.314   0.881 -1.0387 -0.7129 -0.1019
 4487TIP3   OH239571   5.825   4.824   1.931  0.0613  0.1795 -0.2349
 4487TIP3    H139572   5.839   4.782   2.016 -2.3846  2.5500  1.4970
 4487TIP3    H239573   5.730   4.819   1.917  0.0868  2.1050 -1.5383
 4488TIP3   OH239574   2.565   6.589   6.880  0.1448 -0.0712 -0.1217
 4488TIP3    H139575   2.618   6.638   6.818  1.6780  1.2388  2.0968
 4488TIP3    H239576   2.476   6.623   6.867  0.7594  1.5241 -0.3119
 4489TIP3   OH239577   3.627   0.232   6.988 -0.3205 -0.3645 -0.0108
 4489TIP3    H139578   3.616   0.295   6.917 -1.6589 -1.2789 -0.6560
 4489TIP3    H239579   3.538   0.211   7.016  0.1608 -0.7499  1.2773
 4490TIP3   OH239580   3.392   7.498   6.622  0.7236  0.3164 -0.1228
 4490TIP3    H139581   3.468   7.542   6.583  1.6575 -0.1753  1.0835
 4490TIP3    H239582   3.341   7.569   6.660  2.4695  0.4128  2.2420
 4491TIP3   OH239583   2.051   7.624   5.035 -0.2406 -0.1172 -0.1669
 4491TIP3    H139584   2.107   7.682   5.085 -1.7613  0.8523  0.4803
 4491TIP3    H239585   2.105   7.597   4.961  0.7718  1.5406 -0.0920
 4492TIP3   OH239586   7.787   3.904   1.554 -0.7012  1.1728 -0.2464
 4492TIP3    H139587   7.765   3.814   1.532  0.1359  0.0633  2.9333
 4492TIP3    H239588   7.710   3.936   1.601 -0.4696  1.6468 -0.1845
 4493TIP3   OH239589   5.632   4.680   5.961  0.4512  0.1943 -0.0256
 4493TIP3    H139590   5.702   4.740   5.987 -1.5422  2.0579  1.5170
 4493TIP3    H239591   5.626   4.618   6.035  0.7561 -0.2653 -0.3800
 4494TIP3   OH239592   4.794   5.216   7.708  0.3238 -0.6961 -0.2898
 4494TIP3    H139593   4.801   5.186   7.799  0.1306  0.6809  0.2067
 4494TIP3    H239594   4.702   5.237   7.696  0.5872  0.6000 -0.2829
 4495TIP3   OH239595   3.024   7.126   6.311  0.4803 -0.1493 -0.4141
 4495TIP3    H139596   3.031   7.172   6.227  0.7894  1.2308  0.3308
 4495TIP3    H239597   3.109   7.083   6.322  1.2613  1.4409  0.1436
 4496TIP3   OH239598   4.449   2.805   7.590 -0.5044  0.5105  0.4266
 4496TIP3    H139599   4.417   2.756   7.667 -1.4193 -0.2743 -0.4256
 4496TIP3    H239600   4.370   2.835   7.546 -0.0004  0.5778 -0.4511
 4497TIP3   OH239601   0.182   6.292   7.451  0.1514 -0.1096  0.1471
 4497TIP3    H139602   0.103   6.244   7.428  0.0227  0.1400  0.0600
 4497TIP3    H239603   0.179   6.371   7.396  0.1731  0.1725  0.5484
 4498TIP3   OH239604   7.184   7.190   1.333  0.1868  0.2817  0.8373
 4498TIP3    H139605   7.195   7.241   1.253 -1.6995 -0.7127 -0.1167
 4498TIP3    H239606   7.267   7.141   1.341 -0.4384 -1.5259 -1.9857
 4499TIP3   OH239607   5.883   3.290   6.130  0.3766 -0.3889 -0.3645
 4499TIP3    H139608   5.857   3.244   6.050 -0.4938 -0.7887  0.1364
 4499TIP3    H239609   5.907   3.378   6.101 -0.9233 -0.2036 -0.9476
 4500TIP3   OH239610   5.534   3.844   5.997  0.5742  0.4728  0.1833
 4500TIP3    H139611   5.491   3.788   5.933  1.3036  0.1454 -0.0377
 4500TIP3    H239612   5.591   3.785   6.047  0.6058  0.8548  0.6044
 4501TIP3   OH239613   6.769   4.324   1.635  0.8841 -0.0921  0.3037
 4501TIP3    H139614   6.835   4.357   1.696  2.1643 -2.3652  0.2953
 4501TIP3    H239615   6.816   4.261   1.580 -1.2590 -1.8700  0.3165
 4502TIP3   OH239616   8.052   3.698   7.275 -0.5175  0.1422  0.1921
 4502TIP3    H139617   8.021   3.705   7.184  0.4497 -0.5066 -0.2035
 4502TIP3    H239618   7.978   3.728   7.327 -0.2154  3.0152 -0.8755
 4503TIP3   OH239619   7.384   2.945   5.892 -0.2762  0.5806 -0.4618
 4503TIP3    H139620   7.469   2.989   5.885  0.6299 -1.0049  0.0683
 4503TIP3    H239621   7.331   2.984   5.822  0.5648  2.2595 -0.2134
 4504TIP3   OH239622   3.125   4.105   1.537 -0.5505 -0.0607 -0.2374
 4504TIP3    H139623   3.042   4.058   1.543  0.6309 -2.1506  0.8538
 4504TIP3    H239624   3.172   4.064   1.464 -0.2111  0.6291 -0.4147
 4505TIP3   OH239625   2.778   2.752   0.204 -0.0534  0.2109 -0.2332
 4505TIP3    H139626   2.710   2.771   0.268 -1.6707 -0.4387 -1.6618
 4505TIP3    H239627   2.781   2.657   0.199  1.1206  0.2231 -0.0594
 4506TIP3   OH239628   1.591   7.131   6.190  0.4341  1.2902  0.1242
 4506TIP3    H139629   1.687   7.134   6.182  0.4751 -0.3234 -0.3313
 4506TIP3    H239630   1.561   7.111   6.102  0.0043 -2.7427  0.9901
 4507TIP3   OH239631   0.861   0.360   6.707  0.2710  0.1627 -0.3560
 4507TIP3    H139632   0.894   0.336   6.793 -3.9439  0.3741  1.5512
 4507TIP3    H239633   0.833   0.451   6.716 -0.2128  0.2217 -1.9879
 4508TIP3   OH239634   7.032   3.870   7.862 -0.2163  0.4212 -0.2400
 4508TIP3    H139635   7.105   3.818   7.896  0.5888  0.6390 -1.5629
 4508TIP3    H239636   6.967   3.805   7.835 -0.9630  0.2484  1.8190
 4509TIP3   OH239637   0.229   3.081   7.732  0.2007  0.0542 -0.2204
 4509TIP3    H139638   0.225   3.171   7.698  1.7319  0.1849 -0.1154
 4509TIP3    H239639   0.198   3.088   7.822  0.6291  0.5305 -0.1092
 4510TIP3   OH239640   0.385   2.278   7.399  0.1714  0.3194  0.0075
 4510TIP3    H139641   0.433   2.339   7.344  0.1203 -0.2112 -0.6389
 4510TIP3    H239642   0.399   2.310   7.488 -1.6545  2.5702 -0.4202
 4511TIP3   OH239643   2.947   4.265   6.166 -0.8751  0.0581 -0.4012
 4511TIP3    H139644   2.932   4.185   6.216  0.7546  0.4053  0.7471
 4511TIP3    H239645   2.919   4.244   6.077  0.1210 -2.0283 -0.2846
 4512TIP3   OH239646   4.059   2.724   7.662  0.6199  0.0885  0.0543
 4512TIP3    H139647   4.105   2.641   7.663  2.3779  0.9950 -0.8077
 4512TIP3    H239648   4.117   2.785   7.707  0.0060  1.1459 -0.5381
 4513TIP3   OH239649   2.899   7.740   1.741  0.5824 -0.1201 -0.2148
 4513TIP3    H139650   2.928   7.824   1.777  2.7744 -1.5163  1.6030
 4513TIP3    H239651   2.952   7.728   1.662  1.4160 -0.4743  0.3915
 4514TIP3   OH239652   0.326   2.725   6.478  0.1349 -0.4484  0.1731
 4514TIP3    H139653   0.402   2.738   6.534 -1.8981  1.4859  2.6767
 4514TIP3    H239654   0.301   2.634   6.492  1.3373 -0.8101  0.0924
 4515TIP3   OH239655   4.642   3.301   0.700  0.0822 -0.4053 -0.4318
 4515TIP3    H139656   4.606   3.265   0.781  0.1431  0.7652  0.1447
 4515TIP3    H239657   4.605   3.247   0.631 -0.8422 -0.7478  0.3123
 4516TIP3   OH239658   1.784   3.327   6.618  0.4603 -0.4642  0.8145
 4516TIP3    H139659   1.819   3.282   6.541 -1.0711 -1.3530  0.6116
 4516TIP3    H239660   1.692   3.303   6.621  0.2770  0.2894  2.4200
 4517TIP3   OH239661   0.073   5.205   6.116  0.0763  0.2405 -0.2442
 4517TIP3    H139662   0.091   5.285   6.067 -0.4782 -0.2509 -1.2779
 4517TIP3    H239663   0.095   5.134   6.055  2.3383 -0.4601  1.2607
 4518TIP3   OH239664   4.430   4.684   1.786  0.6675  0.1086 -0.1638
 4518TIP3    H139665   4.399   4.774   1.798 -0.6526 -0.3027 -0.2617
 4518TIP3    H239666   4.408   4.641   1.868 -1.5761 -0.8618 -1.1807
 4519TIP3   OH239667   5.810   7.182   6.670  0.1712  0.6230 -0.2805
 4519TIP3    H139668   5.722   7.191   6.708  0.8247  2.3792  0.9597
 4519TIP3    H239669   5.810   7.095   6.631 -1.2050 -0.6402  2.2252
 4520TIP3   OH239670   3.230   4.764   1.021 -0.4182  0.7194  0.3909
 4520TIP3    H139671   3.220   4.740   1.113 -0.5668  1.7303  0.6569
 4520TIP3    H239672   3.306   4.715   0.991  0.7281  1.7247  1.5521
 4521TIP3   OH239673   4.281   4.959   7.684 -0.3253  0.1463  0.2682
 4521TIP3    H139674   4.363   5.000   7.656 -0.0181 -1.2590 -0.9881
 4521TIP3    H239675   4.296   4.865   7.674 -0.5922 -0.4810  4.1710
 4522TIP3   OH239676   3.140   1.878   5.591  0.5128 -0.1632 -0.3874
 4522TIP3    H139677   3.223   1.832   5.581  0.1851 -1.0827  0.7744
 4522TIP3    H239678   3.101   1.877   5.504  1.1967 -0.7634 -0.6989
 4523TIP3   OH239679   0.770   0.852   6.205  0.2426  0.1381  0.0741
 4523TIP3    H139680   0.865   0.845   6.202  0.4533  2.1806  0.4267
 4523TIP3    H239681   0.751   0.885   6.293 -0.9291 -1.5258  0.4915
 4524TIP3   OH239682   6.443   6.218   2.142 -0.4596 -0.1168  0.3012
 4524TIP3    H139683   6.526   6.170   2.146  0.8421  2.0272  1.0434
 4524TIP3    H239684   6.468   6.309   2.154 -2.8762  0.7036 -0.3110
 4525TIP3   OH239685   0.170   7.427   0.214 -0.1233 -0.2349 -0.1962
 4525TIP3    H139686   0.095   7.378   0.181 -1.0223  1.3050 -0.5892
 4525TIP3    H239687   0.170   7.508   0.161  1.5362  0.0016  0.1175
 4526TIP3   OH239688   5.756   7.105   0.430  0.1976 -0.4230 -0.4911
 4526TIP3    H139689   5.749   7.180   0.371 -1.1589 -0.1322 -0.0163
 4526TIP3    H239690   5.685   7.118   0.493  0.0929 -1.9782 -0.2443
 4527TIP3   OH239691   6.388   6.879   7.129  0.0842 -0.2945  0.4616
 4527TIP3    H139692   6.450   6.818   7.090  0.8658  0.6894  0.1216
 4527TIP3    H239693   6.350   6.831   7.203  0.0720 -1.4602 -0.2761
 4528TIP3   OH239694   7.002   2.003   0.648  1.1177  0.2203 -0.1716
 4528TIP3    H139695   6.977   1.972   0.735 -0.4143 -1.2290 -1.0684
 4528TIP3    H239696   7.072   1.943   0.620 -1.1876 -2.0246 -1.5161
 4529TIP3   OH239697   5.512   3.912   2.202  0.2232 -0.2566 -0.1441
 4529TIP3    H139698   5.483   3.917   2.293 -0.8279  2.1885 -0.5146
 4529TIP3    H239699   5.467   3.985   2.159 -0.1289 -1.9502 -2.8829
 4530TIP3   OH239700   4.950   1.281   7.188 -0.1825  0.7240 -0.1554
 4530TIP3    H139701   4.943   1.376   7.197  0.0677  0.7156  0.1439
 4530TIP3    H239702   4.873   1.247   7.233  1.1864  0.6723  2.2874
 4531TIP3   OH239703   0.140   1.851   0.469 -0.0717 -0.1933  0.0755
 4531TIP3    H139704   0.155   1.892   0.554  1.1125 -2.2583  0.9330
 4531TIP3    H239705   0.228   1.836   0.433 -0.4968 -0.8451 -0.7462
 4532TIP3   OH239706   5.125   3.564   6.677  0.1530 -0.5299  0.1249
 4532TIP3    H139707   5.087   3.629   6.617 -0.6217 -1.1346 -0.0539
 4532TIP3    H239708   5.146   3.614   6.755  0.9713  0.2289 -0.5663
 4533TIP3   OH239709   6.649   1.120   7.784  0.3774  0.1593 -0.1600
 4533TIP3    H139710   6.658   1.049   7.848  1.4344 -0.6715 -1.1790
 4533TIP3    H239711   6.655   1.076   7.699  1.3495  1.5104 -0.8221
 4534TIP3   OH239712   4.032   1.434   1.280  0.4216  0.2115 -0.2044
 4534TIP3    H139713   3.969   1.496   1.244  0.4103  0.4978  0.2911
 4534TIP3    H239714   4.114   1.455   1.237  0.3433  0.3494 -0.2884
 4535TIP3   OH239715   5.576   1.402   7.462 -0.1462  0.4320 -0.2322
 4535TIP3    H139716   5.545   1.447   7.541 -0.8796 -0.1883 -0.1502
 4535TIP3    H239717   5.500   1.351   7.433  0.8336 -1.2759  0.0534
 4536TIP3   OH239718   0.534   7.636   7.452  0.4173  0.3631 -0.4153
 4536TIP3    H139719   0.439   7.631   7.446  0.5404 -0.1687 -3.6056
 4536TIP3    H239720   0.551   7.705   7.516 -2.0685 -0.2021  0.9473
 4537TIP3   OH239721   0.407   0.670   6.961  0.0064  0.5388  0.1170
 4537TIP3    H139722   0.398   0.575   6.947  2.3393  0.3775 -0.7592
 4537TIP3    H239723   0.458   0.700   6.886  0.9658  2.1363  1.3421
 4538TIP3   OH239724   6.816   1.457   7.248 -0.3766 -0.0591 -0.5263
 4538TIP3    H139725   6.793   1.410   7.168  1.8715 -1.8208 -0.2585
 4538TIP3    H239726   6.776   1.406   7.318  0.7286 -0.7379 -0.3474
 4539TIP3   OH239727   6.667   3.367   6.344 -0.4662  0.0642 -0.1950
 4539TIP3    H139728   6.726   3.408   6.407 -0.7571  0.9343 -0.4838
 4539TIP3    H239729   6.585   3.355   6.392 -0.4243 -0.0580 -0.1532
 4540TIP3   OH239730   2.410   5.305   1.022 -0.8767  0.4901  0.1554
 4540TIP3    H139731   2.349   5.231   1.029 -0.9670  0.5633  0.1453
 4540TIP3    H239732   2.400   5.335   0.932  0.4284 -0.5791 -0.3805
 4541TIP3   OH239733   5.162   3.081   7.676  0.3930 -0.2995  0.0208
 4541TIP3    H139734   5.084   3.025   7.677  0.8560 -1.0115 -1.1040
 4541TIP3    H239735   5.231   3.024   7.642  2.0708 -0.4682  3.3308
 4542TIP3   OH239736   8.022   6.395   0.110  0.5109  0.2446  0.0096
 4542TIP3    H139737   8.019   6.300   0.123  0.0114  0.5969  3.2116
 4542TIP3    H239738   7.979   6.409   0.026 -1.1788 -2.2412  0.3504
 4543TIP3   OH239739   6.736   5.250   7.260 -0.7804  0.2873  0.1777
 4543TIP3    H139740   6.769   5.334   7.293  1.1032 -0.7599  1.1050
 4543TIP3    H239741   6.751   5.254   7.166 -2.3413  1.6398 -0.0707
 4544TIP3   OH239742   3.481   1.093   6.539 -0.1717  0.2192 -0.2845
 4544TIP3    H139743   3.412   1.035   6.507  0.4048 -0.1926 -0.8313
 4544TIP3    H239744   3.544   1.096   6.467 -0.0450  1.2946 -0.1443
 4545TIP3   OH239745   7.214   3.709   0.050 -0.4502  0.3327 -0.0961
 4545TIP3    H139746   7.151   3.686   0.118 -1.5598 -1.1330 -1.5300
 4545TIP3    H239747   7.259   3.627   0.031 -1.1169  0.3693 -2.0291
 4546TIP3   OH239748   7.277   1.630   0.523 -0.2281  0.4362  0.3998
 4546TIP3    H139749   7.182   1.615   0.524 -0.5159  2.0035  0.2728
 4546TIP3    H239750   7.315   1.545   0.542 -1.5460 -1.0481 -2.8760
 4547TIP3   OH239751   6.015   4.301   0.265 -0.0107  0.0738  0.2630
 4547TIP3    H139752   6.098   4.266   0.232  0.8250  0.6808  1.6447
 4547TIP3    H239753   6.006   4.263   0.352 -1.4354 -0.3434 -0.0369
 4548TIP3   OH239754   1.640   3.535   1.066 -0.6517  0.0334 -0.1647
 4548TIP3    H139755   1.707   3.575   1.121 -1.4929  3.5224 -1.3660
 4548TIP3    H239756   1.578   3.495   1.128  1.3171 -1.2976  1.0401
 4549TIP3   OH239757   4.490   5.204   5.859  0.1093 -0.1903 -0.1695
 4549TIP3    H139758   4.472   5.204   5.953 -1.2730  0.6023 -0.3998
 4549TIP3    H239759   4.536   5.121   5.843 -0.5692 -0.8355  1.0509
 4550TIP3   OH239760   2.198   0.770   6.001 -0.0342 -0.1145  0.1792
 4550TIP3    H139761   2.108   0.782   5.971 -0.0554  0.3429  0.4259
 4550TIP3    H239762   2.242   0.853   5.982  0.4090 -0.4192 -0.1787
 4551TIP3   OH239763   0.596   3.865   0.399  0.0208 -0.2303  0.7098
 4551TIP3    H139764   0.575   3.775   0.424 -2.2091  0.2249  0.7104
 4551TIP3    H239765   0.606   3.861   0.304 -0.3682 -0.4505  0.6716
 4552TIP3   OH239766   0.620   7.715   5.112  0.1838  0.4096 -0.0226
 4552TIP3    H139767   0.686   7.772   5.152 -0.2172  2.8624 -2.5568
 4552TIP3    H239768   0.537   7.759   5.130 -0.5299 -1.1838  0.7390
 4553TIP3   OH239769   0.843   7.380   2.219  0.4436  0.0013  0.1585
 4553TIP3    H139770   0.900   7.359   2.293 -0.4725  0.2465  0.9609
 4553TIP3    H239771   0.828   7.475   2.228 -0.3781 -0.1271  0.1848
 4554TIP3   OH239772   6.116   4.560   5.330  0.6624 -0.3326  0.7689
 4554TIP3    H139773   6.122   4.644   5.375  0.5722 -0.7919  1.6591
 4554TIP3    H239774   6.054   4.509   5.382  2.8554 -1.9773  1.9742
 4555TIP3   OH239775   6.379   7.826   5.966 -0.1319  1.0600 -0.4443
 4555TIP3    H139776   6.431   7.745   5.972 -1.1618  0.3178 -1.1676
 4555TIP3    H239777   6.378   7.847   5.873 -1.4024  0.8633 -0.4952
 4556TIP3   OH239778   6.543   4.963   1.343 -0.3553 -0.5505 -0.2989
 4556TIP3    H139779   6.555   4.870   1.363  1.4482 -0.5752 -1.2956
 4556TIP3    H239780   6.610   5.008   1.396  0.9787 -0.1602 -2.2009
 4557TIP3   OH239781   7.848   1.738   7.252  0.1928 -0.4995  0.1280
 4557TIP3    H139782   7.764   1.756   7.294  0.3824  0.6196  0.0392
 4557TIP3    H239783   7.832   1.656   7.203 -0.2198 -1.4397  1.7625
 4558TIP3   OH239784   6.026   7.591   5.459 -0.0278 -0.4978 -0.0026
 4558TIP3    H139785   5.954   7.653   5.450 -0.0513 -0.6566 -1.0409
 4558TIP3    H239786   5.984   7.505   5.463  0.0227 -0.4858  1.0857
 4559TIP3   OH239787   2.849   7.710   0.473  0.3544 -0.3683  0.2693
 4559TIP3    H139788   2.785   7.662   0.420  1.0041  0.3131 -1.1886
 4559TIP3    H239789   2.871   7.787   0.420 -0.0504  1.1503  2.1613
 4560TIP3   OH239790   7.363   0.419   1.763 -0.6978  0.1421 -0.1672
 4560TIP3    H139791   7.312   0.492   1.798  1.3849  0.7764  1.8303
 4560TIP3    H239792   7.392   0.371   1.840  0.5785 -0.9579 -1.2801
 4561TIP3   OH239793   6.283   2.266   1.599  0.2502  0.3874  0.1637
 4561TIP3    H139794   6.314   2.314   1.676  2.3605  0.3870 -0.6215
 4561TIP3    H239795   6.196   2.236   1.623  0.9391  0.1579  2.6613
 4562TIP3   OH239796   5.074   8.006   2.125  0.1341 -0.0533 -0.2674
 4562TIP3    H139797   5.082   7.911   2.128 -1.1762 -0.1771  0.3038
 4562TIP3    H239798   5.161   8.038   2.103  0.9401 -1.3289  0.9320
 4563TIP3   OH239799   7.980   7.551   1.080  0.4552  0.1205 -0.1040
 4563TIP3    H139800   8.062   7.521   1.118  0.5931  0.0966 -0.4194
 4563TIP3    H239801   7.922   7.475   1.086  0.8353 -0.2479 -0.9982
 4564TIP3   OH239802   4.086   3.971   1.079 -0.0943 -0.5308  0.4378
 4564TIP3    H139803   4.042   3.936   1.001 -0.2130  0.6431 -0.0428
 4564TIP3    H239804   4.157   4.025   1.044  1.6116 -2.1674  1.1897
 4565TIP3   OH239805   7.420   1.102   1.485  0.3960 -0.1298  0.1683
 4565TIP3    H139806   7.478   1.079   1.412  1.1630  0.3108  0.6212
 4565TIP3    H239807   7.450   1.048   1.558  0.9700  0.8724  0.7091
 4566TIP3   OH239808   1.947   3.996   7.682  0.3044  0.0168 -0.1884
 4566TIP3    H139809   1.978   3.921   7.732  0.8435 -0.2353 -0.8787
 4566TIP3    H239810   1.949   3.966   7.591 -2.5175 -0.1933 -0.2511
 4567TIP3   OH239811   6.233   5.725   6.434  0.5250 -0.3627 -0.0136
 4567TIP3    H139812   6.260   5.778   6.509 -2.2645  1.6055 -0.2414
 4567TIP3    H239813   6.214   5.789   6.365 -0.8308 -1.8053 -1.0564
 4568TIP3   OH239814   6.721   0.861   0.231  0.2868  0.2624  0.2822
 4568TIP3    H139815   6.814   0.845   0.242  0.2305  0.0154  0.4176
 4568TIP3    H239816   6.716   0.945   0.186  0.6091 -0.4312 -1.1172
 4569TIP3   OH239817   6.269   1.819   1.542 -0.1139 -0.1124 -0.7078
 4569TIP3    H139818   6.196   1.758   1.537  0.0317 -0.4196  0.6314
 4569TIP3    H239819   6.346   1.764   1.558  0.3794  0.2388 -1.7645
 4570TIP3   OH239820   4.507   0.634   0.335 -0.0376  0.1959  0.6465
 4570TIP3    H139821   4.510   0.585   0.417 -0.0092 -1.1853 -0.1585
 4570TIP3    H239822   4.441   0.702   0.351 -1.3533 -1.1607  1.2446
 4571TIP3   OH239823   0.907   3.299   7.080 -0.2452 -0.3528 -0.6585
 4571TIP3    H139824   0.986   3.281   7.029 -0.4936  0.1424 -1.2340
 4571TIP3    H239825   0.841   3.323   7.014 -0.9575 -1.0485 -0.2100
 4572TIP3   OH239826   7.880   0.916   7.546  0.2153 -0.4023  0.0133
 4572TIP3    H139827   7.858   0.920   7.453 -0.4778  0.2692  0.1945
 4572TIP3    H239828   7.888   1.008   7.573 -1.9592 -0.4810  1.1526
 4573TIP3   OH239829   1.091   0.926   7.514 -0.0902 -0.2525  0.0054
 4573TIP3    H139830   1.015   0.966   7.555  1.4651  0.3299  2.5692
 4573TIP3    H239831   1.155   0.997   7.506  1.1012 -1.2308  0.3791
 4574TIP3   OH239832   3.820   2.089   6.765  0.2277  0.5520  0.1691
 4574TIP3    H139833   3.751   2.112   6.702  1.0400 -0.9373 -1.3380
 4574TIP3    H239834   3.772   2.064   6.844 -1.0382 -0.7962 -0.9541
 4575TIP3   OH239835   1.316   7.262   1.810 -0.6547  0.1893 -0.4380
 4575TIP3    H139836   1.370   7.236   1.885 -1.2143  0.3094  0.0090
 4575TIP3    H239837   1.353   7.346   1.783 -0.8204  0.4302  0.0726
 4576TIP3   OH239838   4.257   6.388   6.028 -0.3687 -0.6238  0.1459
 4576TIP3    H139839   4.301   6.407   5.945  0.8494 -0.0800  0.8875
 4576TIP3    H239840   4.171   6.430   6.020  0.0400  0.1081 -0.5210
 4577TIP3   OH239841   5.986   0.287   5.927  0.2884  0.4592 -0.4226
 4577TIP3    H139842   5.956   0.209   5.881  0.6115 -0.4439  0.8244
 4577TIP3    H239843   5.906   0.332   5.955  0.0902 -0.1213 -0.0438
 4578TIP3   OH239844   6.355   5.446   1.610  0.0404  0.0760  0.1948
 4578TIP3    H139845   6.281   5.503   1.630  0.3446  0.5479  0.0095
 4578TIP3    H239846   6.429   5.488   1.653  0.1647 -0.5119  0.5679
 4579TIP3   OH239847   3.212   3.805   6.739  0.6853  0.1022  0.7533
 4579TIP3    H139848   3.229   3.748   6.664 -0.6377 -0.0767  0.5652
 4579TIP3    H239849   3.298   3.819   6.779  1.2056 -0.9587  0.0454
 4580TIP3   OH239850   2.816   7.151   6.955  0.6038  0.0417 -0.1374
 4580TIP3    H139851   2.819   7.220   6.890  1.0117  0.1981  0.0446
 4580TIP3    H239852   2.750   7.089   6.922 -0.4705  0.9914  0.1817
 4581TIP3   OH239853   5.183   4.422   0.402 -0.2214  0.0184 -1.2848
 4581TIP3    H139854   5.196   4.337   0.445  1.5024  0.6818 -0.3917
 4581TIP3    H239855   5.088   4.430   0.393 -0.4922 -1.3456 -0.0419
 4582TIP3   OH239856   4.505   1.027   1.340 -0.6443 -0.3454  0.2738
 4582TIP3    H139857   4.477   1.025   1.432 -1.2778 -0.4697  0.0833
 4582TIP3    H239858   4.432   1.068   1.294 -0.9399 -1.5709 -0.3846
 4583TIP3   OH239859   0.181   4.133   1.071 -0.2008  0.5235 -0.0547
 4583TIP3    H139860   0.115   4.128   1.140  1.9382 -1.6806  2.0298
 4583TIP3    H239861   0.216   4.222   1.077 -0.8541  0.7252  0.8862
 4584TIP3   OH239862   0.444   5.396   6.980 -0.1173  0.3588  0.5954
 4584TIP3    H139863   0.500   5.472   7.000 -1.0052  0.8290  1.3872
 4584TIP3    H239864   0.411   5.367   7.066  0.5977 -1.2519  0.3596
 4585TIP3   OH239865   3.871   7.245   6.813  1.3460  0.2812  0.1497
 4585TIP3    H139866   3.780   7.237   6.785  0.8354  0.5671  1.5904
 4585TIP3    H239867   3.913   7.164   6.784  0.4126 -0.2347  0.2006
 4586TIP3   OH239868   5.896   3.020   0.291  0.5134  0.4001 -0.2812
 4586TIP3    H139869   5.902   3.098   0.345  1.7344 -0.7227  1.3205
 4586TIP3    H239870   5.833   2.964   0.337  0.6627 -0.0932 -0.6673
 4587TIP3   OH239871   7.813   1.741   1.746 -0.1094 -0.1122  0.0620
 4587TIP3    H139872   7.767   1.683   1.685 -1.1854 -0.2895  0.9991
 4587TIP3    H239873   7.801   1.828   1.710 -3.8106  0.2715  1.6791
 4588TIP3   OH239874   3.304   4.184   0.784  0.7226  0.3065 -0.1778
 4588TIP3    H139875   3.220   4.163   0.742  1.0819 -0.4295 -0.5438
 4588TIP3    H239876   3.346   4.245   0.724  0.8709 -0.0915 -0.4835
 4589TIP3   OH239877   2.152   1.010   6.582  0.1385 -0.2849  0.4264
 4589TIP3    H139878   2.168   0.917   6.596  0.8497 -0.3269 -0.5736
 4589TIP3    H239879   2.186   1.052   6.662 -3.4896 -1.0858  2.6232
 4590TIP3   OH239880   3.601   0.847   0.266 -0.5583  0.3434  0.3998
 4590TIP3    H139881   3.605   0.755   0.293 -0.5243  0.5336  1.0736
 4590TIP3    H239882   3.541   0.848   0.192  0.2917 -0.3811 -0.3321
 4591TIP3   OH239883   4.230   2.939   7.491 -0.2607  0.0816  0.0587
 4591TIP3    H139884   4.278   3.006   7.442  0.3555 -0.9105 -0.7266
 4591TIP3    H239885   4.221   2.976   7.579  1.9812  0.3052  0.2512
 4592TIP3   OH239886   3.512   3.851   7.262 -0.0101 -0.0146 -0.0463
 4592TIP3    H139887   3.595   3.812   7.238  0.2513 -0.6029  1.6909
 4592TIP3    H239888   3.492   3.815   7.348 -0.8927  1.9155  0.6318
 4593TIP3   OH239889   6.359   3.218   5.962  0.4961  0.0834 -0.4629
 4593TIP3    H139890   6.439   3.257   5.927  1.4081 -1.4953 -0.2351
 4593TIP3    H239891   6.289   3.276   5.932  1.4449  0.0076 -3.0909
 4594TIP3   OH239892   3.986   5.422   7.715  0.1064  0.6409  0.0002
 4594TIP3    H139893   4.043   5.496   7.694  0.2983  0.2557 -0.8548
 4594TIP3    H239894   3.921   5.421   7.645  0.7810 -0.6860 -0.6385
 4595TIP3   OH239895   8.059   6.813   1.659 -0.4409  0.0686 -0.4971
 4595TIP3    H139896   7.999   6.819   1.585 -2.3682 -1.4847  0.7930
 4595TIP3    H239897   8.010   6.762   1.724  2.4060 -1.5314  0.5723
 4596TIP3   OH239898   1.802   4.274   7.034 -0.0601  0.0682  0.2361
 4596TIP3    H139899   1.761   4.255   6.949 -1.0008 -0.2404  0.7383
 4596TIP3    H239900   1.756   4.217   7.096 -0.1635  1.0914  1.1335
 4597TIP3   OH239901   2.442   4.337   0.526 -0.1298 -0.0792  0.1817
 4597TIP3    H139902   2.504   4.397   0.568  0.4811  1.0945 -2.2185
 4597TIP3    H239903   2.395   4.391   0.463 -2.4351 -1.3285  0.7188
 4598TIP3   OH239904   2.387   5.765   0.637 -0.5380  0.3461  0.1069
 4598TIP3    H139905   2.344   5.766   0.722  0.9935 -1.4128  0.9830
 4598TIP3    H239906   2.330   5.712   0.581 -0.5652 -0.2158  0.6564
 4599TIP3   OH239907   3.117   5.464   6.516  0.3157  0.2686  0.3986
 4599TIP3    H139908   3.043   5.521   6.499  0.2888  0.2641  0.4963
 4599TIP3    H239909   3.193   5.515   6.489  0.0925 -0.9232 -2.8007
 4600TIP3   OH239910   5.926   5.903   1.620  0.2317  0.3024  0.2273
 4600TIP3    H139911   5.846   5.927   1.667 -0.0373  1.6688 -0.8726
 4600TIP3    H239912   5.924   5.808   1.616 -1.6749  0.3287 -0.3337
 4601TIP3   OH239913   7.236   3.003   0.802  0.6339  0.4119  0.0871
 4601TIP3    H139914   7.200   2.954   0.728 -0.4707  0.0310  0.8463
 4601TIP3    H239915   7.251   3.091   0.768 -0.1596  0.3252 -0.5166
 4602TIP3   OH239916   2.292   7.687   7.466  0.3651 -0.4449  0.1438
 4602TIP3    H139917   2.319   7.697   7.558 -2.1945  0.1292  0.9135
 4602TIP3    H239918   2.358   7.630   7.427  1.4246 -0.8484  2.3972
 4603TIP3   OH239919   2.915   3.572   6.676  0.0069 -0.6937 -0.5991
 4603TIP3    H139920   2.904   3.536   6.764 -2.1447  0.1009 -0.4743
 4603TIP3    H239921   2.843   3.635   6.667  1.1698  0.4829 -2.3295
 4604TIP3   OH239922   1.239   3.401   1.596 -0.3023  0.3938  0.2494
 4604TIP3    H139923   1.289   3.482   1.590  1.0393 -0.4277 -0.2825
 4604TIP3    H239924   1.249   3.373   1.687 -2.3409  1.7269  0.9587
 4605TIP3   OH239925   6.545   1.710   0.577 -0.1177  0.1950 -0.4135
 4605TIP3    H139926   6.473   1.656   0.611 -0.6968 -0.3104 -2.2779
 4605TIP3    H239927   6.624   1.661   0.600 -0.5644 -0.8345 -0.9839
 4606TIP3   OH239928   1.714   8.107   7.051  0.7215  0.3865  0.2055
 4606TIP3    H139929   1.773   8.149   6.988 -0.6429 -0.9074 -2.0850
 4606TIP3    H239930   1.695   8.022   7.012 -0.8542 -0.1539  2.0139
 4607TIP3   OH239931   0.641   5.485   1.501  0.8791  0.7703  0.4001
 4607TIP3    H139932   0.709   5.418   1.506  1.0698  0.7376 -1.8069
 4607TIP3    H239933   0.583   5.456   1.431 -0.6870  1.4869  1.3326
 4608TIP3   OH239934   1.211   7.394   1.390  0.1733 -0.1537  0.5135
 4608TIP3    H139935   1.177   7.439   1.313 -1.2856  0.2876  1.3795
 4608TIP3    H239936   1.223   7.464   1.455  1.3226 -0.5241  0.7189
 4609TIP3   OH239937   6.613   2.214   6.728  0.1762 -0.7071  0.2301
 4609TIP3    H139938   6.624   2.126   6.762  2.0921 -0.1464  1.1968
 4609TIP3    H239939   6.595   2.202   6.635 -0.6836 -2.1151  0.5410
 4610TIP3   OH239940   7.536   7.026   7.548 -0.6249 -0.0312  0.3108
 4610TIP3    H139941   7.486   6.982   7.617 -0.4852 -0.6952 -0.0071
 4610TIP3    H239942   7.543   6.962   7.478  1.8489 -0.4797  0.8632
 4611TIP3   OH239943   0.320   2.264   0.058  0.0590  0.5479  1.3195
 4611TIP3    H139944   0.298   2.288   0.148 -1.5479 -0.3966  1.2156
 4611TIP3    H239945   0.236   2.238   0.019  0.8400  0.2634 -0.2405
 4612TIP3   OH239946   2.424   0.571   1.891 -0.1357 -0.2809  0.6685
 4612TIP3    H139947   2.461   0.643   1.840  0.8296 -0.7542  0.6901
 4612TIP3    H239948   2.331   0.572   1.869  0.1294  0.0207 -0.4906
 4613TIP3   OH239949   5.321   0.386   1.397  1.0624 -0.7634  0.5140
 4613TIP3    H139950   5.340   0.388   1.491  0.3989  1.3705  0.6595
 4613TIP3    H239951   5.396   0.431   1.357  0.7101 -0.4854  0.1607
 4614TIP3   OH239952   3.073   2.677   0.568 -0.2058 -0.3428 -0.2673
 4614TIP3    H139953   3.003   2.694   0.632  1.2167  0.9787  1.0242
 4614TIP3    H239954   3.103   2.589   0.589 -0.7648 -0.5112 -0.1375
 4615TIP3   OH239955   4.787   0.540   6.804  0.1952 -0.0213 -0.5665
 4615TIP3    H139956   4.870   0.574   6.769 -0.4616  1.5640 -0.6428
 4615TIP3    H239957   4.784   0.572   6.894 -0.0512 -0.6129 -0.3592
 4616TIP3   OH239958   7.241   6.350   1.663  0.1603  0.0878 -0.5241
 4616TIP3    H139959   7.208   6.272   1.708  1.4559 -0.3179 -0.2165
 4616TIP3    H239960   7.236   6.420   1.728 -0.9099  0.2482 -0.7673
 4617TIP3   OH239961   7.553   2.355   6.122 -0.2908  0.1282 -0.0118
 4617TIP3    H139962   7.595   2.378   6.040 -0.2522 -0.2504 -0.0991
 4617TIP3    H239963   7.472   2.406   6.123 -0.3058  0.1126 -0.2988
 4618TIP3   OH239964   7.733   7.090   0.266 -0.0308 -0.1220 -0.2337
 4618TIP3    H139965   7.764   7.156   0.204  0.8952 -0.4293 -0.1158
 4618TIP3    H239966   7.652   7.126   0.301  3.0778  3.8169  4.2030
 4619TIP3   OH239967   4.753   4.020   6.775  0.0672 -0.8337 -0.3205
 4619TIP3    H139968   4.661   4.042   6.792  0.1318 -0.7494 -0.0721
 4619TIP3    H239969   4.803   4.077   6.834  0.3102 -0.4034 -0.9339
 4620TIP3   OH239970   3.507   3.149   1.745  0.2419 -0.5700 -0.8298
 4620TIP3    H139971   3.513   3.133   1.840 -0.0999  1.0500 -0.5034
 4620TIP3    H239972   3.582   3.204   1.725 -0.2862  0.0094 -1.2769
 4621TIP3   OH239973   0.772   3.217   0.668 -0.7094 -0.0341  0.0471
 4621TIP3    H139974   0.777   3.121   0.666 -0.0832  0.0105 -0.7579
 4621TIP3    H239975   0.697   3.235   0.725 -1.4340 -1.0149 -0.5626
 4622TIP3   OH239976   0.693   2.145   0.678  0.2013  0.1954  0.2259
 4622TIP3    H139977   0.711   2.235   0.648 -0.7546  0.7089  1.1565
 4622TIP3    H239978   0.645   2.105   0.606 -0.6682  0.9103  0.3937
 4623TIP3   OH239979   7.792   6.248   6.358  0.2104 -0.2304 -0.0084
 4623TIP3    H139980   7.716   6.285   6.313  1.4703  1.6241 -0.7277
 4623TIP3    H239981   7.830   6.187   6.295 -1.3363 -2.1957  0.8335
 4624TIP3   OH239982   8.050   6.613   6.387 -0.0403 -0.2269  0.3028
 4624TIP3    H139983   8.133   6.625   6.432  1.3551 -1.4690 -1.7933
 4624TIP3    H239984   8.005   6.546   6.439  0.3856  0.1968  1.2546
 4625TIP3   OH239985   6.658   2.063   6.943  0.5983  0.4049  0.7829
 4625TIP3    H139986   6.632   2.057   7.035  2.4854 -0.2311  1.3139
 4625TIP3    H239987   6.672   2.156   6.928 -1.3592  0.7192  0.6136
 4626TIP3   OH239988   5.537   4.151   1.482  0.2610  0.1437 -0.3685
 4626TIP3    H139989   5.558   4.063   1.513  1.1204  0.2195 -0.6838
 4626TIP3    H239990   5.614   4.203   1.505 -0.2432  0.8175 -0.1783
 4627TIP3   OH239991   2.108   0.998   6.279  0.3972  0.1410 -0.2586
 4627TIP3    H139992   2.159   0.924   6.249 -1.6169 -1.5910  0.3292
 4627TIP3    H239993   2.128   1.006   6.372 -1.2908 -1.4340  0.3081
 4628TIP3   OH239994   1.291   0.609   6.849  0.6363  0.9136  0.0632
 4628TIP3    H139995   1.215   0.633   6.902 -0.6730 -1.1060 -0.7668
 4628TIP3    H239996   1.291   0.671   6.777 -2.1516 -0.7769 -1.5928
 4629TIP3   OH239997   6.782   3.154   1.536  0.2964  0.2961  0.2339
 4629TIP3    H139998   6.729   3.118   1.607  0.0413 -0.6455 -0.4174
 4629TIP3    H239999   6.868   3.115   1.548 -0.1437 -1.0802 -0.8372
 4630TIP3   OH240000   7.915   5.460   6.960  0.3091  0.3243  0.0055
 4630TIP3    H140001   7.928   5.424   6.873 -0.5248 -0.1874  0.0728
 4630TIP3    H240002   7.821   5.481   6.964 -0.3364 -2.3115  1.6949
 4631TIP3   OH240003   0.804   1.228   0.741 -0.3777 -0.0912 -0.9096
 4631TIP3    H140004   0.789   1.134   0.733  1.1164 -0.3814 -0.6070
 4631TIP3    H240005   0.795   1.247   0.834  1.3010 -0.3444 -0.6590
 4632TIP3   OH240006   7.806   6.856   0.480  0.1619 -0.5453 -0.5660
 4632TIP3    H140007   7.789   6.934   0.426 -0.9199 -0.3843 -0.0125
 4632TIP3    H240008   7.862   6.888   0.550 -0.9654 -0.0615  0.1335
 4633TIP3   OH240009   2.736   3.084   2.042 -0.6715  0.7339  0.0273
 4633TIP3    H140010   2.789   3.049   2.114 -0.9508  1.4265  0.5823
 4633TIP3    H240011   2.780   3.166   2.018 -0.9765  0.8528 -0.1213
 4634TIP3   OH240012   6.934   2.926   7.854 -0.3451  0.1984 -0.3382
 4634TIP3    H140013   7.006   2.870   7.881  0.7254  0.4599 -2.4199
 4634TIP3    H240014   6.858   2.894   7.902  0.4274 -2.3957 -0.7316
 4635TIP3   OH240015   3.231   3.110   5.859 -0.1587  0.0582 -0.2927
 4635TIP3    H140016   3.310   3.133   5.810 -1.5865  2.0012 -1.8535
 4635TIP3    H240017   3.223   3.015   5.850  1.7919 -0.1279 -0.3616
 4636TIP3   OH240018   1.654   6.892   7.065  1.0245 -0.4012 -0.2998
 4636TIP3    H140019   1.602   6.946   7.124 -1.2007 -0.6125 -1.9384
 4636TIP3    H240020   1.720   6.952   7.029  0.9504  0.2704  0.6637
 4637TIP3   OH240021   3.533   5.340   2.141  0.0191 -0.4028  0.4192
 4637TIP3    H140022   3.520   5.312   2.232  2.2990  0.2672  1.0364
 4637TIP3    H240023   3.548   5.258   2.093  0.8290 -0.6567  1.0700
 4638TIP3   OH240024   7.002   1.357   2.573  0.1087  0.4115  0.2554
 4638TIP3    H140025   6.991   1.438   2.523 -1.6256  2.2924  3.3846
 4638TIP3    H240026   7.090   1.363   2.609  0.6157  0.0123 -0.8596
 4639TIP3   OH240027   4.974   3.590   0.364  0.4689  0.0523 -0.4840
 4639TIP3    H140028   4.910   3.658   0.342  0.2414  0.4015  1.1483
 4639TIP3    H240029   4.923   3.509   0.369  0.3937  0.0975 -0.5257
 4640TIP3   OH240030   8.005   3.529   0.186  0.4552  0.2322  0.1395
 4640TIP3    H140031   7.936   3.478   0.228  0.1677  0.1236 -0.4438
 4640TIP3    H240032   8.061   3.557   0.257  1.6723 -2.4318  0.3574
 4641TIP3   OH240033   4.074   0.348   1.160 -0.2557  0.7271  0.1124
 4641TIP3    H140034   4.169   0.353   1.174 -0.1865 -0.3149  0.0729
 4641TIP3    H240035   4.037   0.355   1.248 -0.1441  1.0357  0.1379
 4642TIP3   OH240036   1.565   1.715   0.266 -0.5387 -0.4581  0.2210
 4642TIP3    H140037   1.530   1.640   0.218  0.0014 -0.6145  0.0639
 4642TIP3    H240038   1.647   1.735   0.222  0.1461 -0.8237  1.2812
 4643TIP3   OH240039   7.447   1.702   1.424  0.1175 -0.0743  0.8515
 4643TIP3    H140040   7.385   1.767   1.392  0.3154 -1.5502 -3.0639
 4643TIP3    H240041   7.407   1.618   1.401  2.5156 -1.1381  0.2949
 4644TIP3   OH240042   6.400   0.590   0.520  0.0084 -0.3288 -0.4448
 4644TIP3    H140043   6.381   0.496   0.522  0.6515 -0.5756 -3.0138
 4644TIP3    H240044   6.485   0.598   0.564  0.3646 -1.0931 -0.9584
 4645TIP3   OH240045   6.255   5.686   0.337 -0.1642 -0.0280  0.0198
 4645TIP3    H140046   6.258   5.747   0.262  0.6404  0.6423  0.5791
 4645TIP3    H240047   6.322   5.621   0.317 -0.1583 -0.0177  0.0071
 4646TIP3   OH240048   6.460   2.549   6.752 -0.2685  0.1576  0.0158
 4646TIP3    H140049   6.394   2.609   6.785 -0.5832  0.6043 -1.3828
 4646TIP3    H240050   6.412   2.488   6.696  0.2474 -0.6204  0.3882
 4647TIP3   OH240051   4.637   7.505   5.863  0.3061  0.1621 -0.1223
 4647TIP3    H140052   4.543   7.489   5.863  0.2014  0.6129  0.9394
 4647TIP3    H240053   4.672   7.444   5.928  0.6241  0.5537  0.0839
 4648TIP3   OH240054   2.731   5.548   1.790 -0.3253  0.1842  0.0060
 4648TIP3    H140055   2.809   5.592   1.757 -0.3787  2.5241  2.5908
 4648TIP3    H240056   2.762   5.500   1.867 -1.1856 -0.1228  0.1661
 4649TIP3   OH240057   0.977   0.413   1.642 -0.3483 -0.5773 -0.3127
 4649TIP3    H140058   0.936   0.385   1.724  1.3020  0.3419  0.8822
 4649TIP3    H240059   1.062   0.370   1.641  0.3982  0.8617 -0.6250
 4650TIP3   OH240060   4.995   4.563   1.240 -0.2035 -0.4004 -0.3722
 4650TIP3    H140061   5.033   4.496   1.182  1.6248 -1.0022  1.3925
 4650TIP3    H240062   5.028   4.646   1.206  2.0556 -0.8453  0.5170
 4651TIP3   OH240063   1.813   6.118   7.304 -0.2269  0.8491 -0.0553
 4651TIP3    H140064   1.796   6.086   7.215 -1.4247 -0.9903  0.7611
 4651TIP3    H240065   1.898   6.081   7.326 -0.5175  0.1996  0.0102
 4652TIP3   OH240066   4.763   5.464   1.688 -0.1070  0.4473  0.2366
 4652TIP3    H140067   4.836   5.460   1.750 -0.6239 -0.9632  0.8059
 4652TIP3    H240068   4.755   5.374   1.656  0.6386  1.2564 -2.5174
 4653TIP3   OH240069   3.053   0.167   0.179  0.0739 -0.4423 -0.0774
 4653TIP3    H140070   2.963   0.147   0.204  0.4023 -2.0582 -0.1130
 4653TIP3    H240071   3.097   0.185   0.262 -0.6159  2.0219 -0.1677
 4654TIP3   OH240072   1.125   5.822   5.125 -0.6426  0.2474  0.2081
 4654TIP3    H140073   1.070   5.882   5.173 -2.0311  0.2666 -1.3303
 4654TIP3    H240074   1.107   5.736   5.164 -1.6008  0.2914 -0.1087
 4655TIP3   OH240075   7.601   0.776   6.614  0.2436  0.2778  0.5771
 4655TIP3    H140076   7.680   0.826   6.635  0.7641  0.1486 -0.9438
 4655TIP3    H240077   7.559   0.826   6.544 -0.7187  0.0291  0.9585
 4656TIP3   OH240078   0.022   8.077   6.110 -0.0889 -0.5465  0.2379
 4656TIP3    H140079   0.009   8.021   6.187  1.1283 -1.2292 -0.0238
 4656TIP3    H240080   0.016   8.017   6.036  3.8799 -0.9856  0.0387
 4657TIP3   OH240081   7.107   5.069   6.287  0.5608 -0.1549 -0.6868
 4657TIP3    H140082   7.076   5.159   6.286 -0.1962 -0.3572  0.8430
 4657TIP3    H240083   7.059   5.026   6.216 -0.5100  0.2180 -0.2093
 4658TIP3   OH240084   5.719   4.377   0.213 -0.0560  0.1222  0.5077
 4658TIP3    H140085   5.756   4.293   0.242 -0.3330  0.4372  1.8110
 4658TIP3    H240086   5.675   4.412   0.290 -0.4146  1.2212 -0.1770
 4659TIP3   OH240087   3.098   3.326   0.876  0.3514 -0.9077 -0.0792
 4659TIP3    H140088   3.029   3.383   0.909  0.0917 -1.2936  0.0432
 4659TIP3    H240089   3.165   3.386   0.842 -1.5238 -0.4510 -3.4257
 4660TIP3   OH240090   3.427   1.121   0.793  0.8329 -0.1975 -0.6986
 4660TIP3    H140091   3.444   1.067   0.869  0.7480 -0.0683 -0.5878
 4660TIP3    H240092   3.448   1.210   0.821 -1.0762  0.1294 -0.1990
 4661TIP3   OH240093   1.312   4.213   6.204 -0.8041 -0.4171 -0.0357
 4661TIP3    H140094   1.381   4.228   6.139  0.7180 -1.0341  1.3545
 4661TIP3    H240095   1.277   4.300   6.222 -0.7860 -0.1601 -1.1816
 4662TIP3   OH240096   1.242   3.835   6.862 -0.0099  0.1995 -0.0397
 4662TIP3    H140097   1.331   3.799   6.856  0.7458  2.0571 -0.7226
 4662TIP3    H240098   1.254   3.930   6.852 -2.1039  0.4659 -0.3995
 4663TIP3   OH240099   6.999   0.219   2.078 -0.1753  0.1600 -0.3001
 4663TIP3    H140100   6.961   0.154   2.137  0.5735 -0.5926 -0.6247
 4663TIP3    H240101   7.083   0.242   2.119  0.2585 -0.2191 -0.9541
 4664TIP3   OH240102   7.328   0.410   0.839  0.0134 -0.4351  0.3362
 4664TIP3    H140103   7.331   0.337   0.900 -0.6771 -1.2996 -0.6354
 4664TIP3    H240104   7.350   0.371   0.754  0.5682  0.6632 -0.0462
 4665TIP3   OH240105   4.460   1.385   6.832 -0.1381  0.6412 -0.5782
 4665TIP3    H140106   4.381   1.408   6.783  0.1535 -0.1181 -1.4357
 4665TIP3    H240107   4.482   1.297   6.802 -0.3254 -0.1612  1.4263
 4666TIP3   OH240108   7.313   6.485   6.842 -0.4609  0.3528 -0.6722
 4666TIP3    H140109   7.333   6.550   6.774 -1.4640 -0.2026 -1.5264
 4666TIP3    H240110   7.220   6.498   6.862 -1.0843 -1.7286 -1.9165
 4667TIP3   OH240111   1.964   1.706   0.482  0.0643 -0.2890  0.5728
 4667TIP3    H140112   1.966   1.657   0.399 -0.2804 -2.7594  1.9224
 4667TIP3    H240113   1.930   1.792   0.458  1.0597 -0.5238 -2.0215
 4668TIP3   OH240114   7.377   7.812   1.363  0.3760  0.0074  0.0594
 4668TIP3    H140115   7.302   7.765   1.327  0.1135 -0.0800  0.7133
 4668TIP3    H240116   7.414   7.752   1.427 -0.3207  0.9066  1.3412
 4669TIP3   OH240117   6.441   0.382   0.043  0.4846  0.3702 -0.0838
 4669TIP3    H140118   6.398   0.450   0.094  0.6090 -0.9849  1.9140
 4669TIP3    H240119   6.499   0.431  -0.016 -2.0929  2.1283 -1.3552
 4670TIP3   OH240120   6.304   6.295   0.062  0.2611  0.3710 -0.0382
 4670TIP3    H140121   6.224   6.262   0.022  0.5542 -0.6603  0.2071
 4670TIP3    H240122   6.357   6.217   0.079 -0.0803  0.6793  2.8903
 4671TIP3   OH240123   0.879   1.456   0.370 -0.0457 -0.1978  0.6284
 4671TIP3    H140124   0.853   1.536   0.415  0.0037  0.6046 -0.6929
 4671TIP3    H240125   0.925   1.405   0.436 -0.0556  0.8830  1.5010
 4672TIP3   OH240126   3.691   2.537   0.398  0.0460 -0.3777 -0.0550
 4672TIP3    H140127   3.700   2.594   0.474 -0.4069 -0.2446 -0.0974
 4672TIP3    H240128   3.628   2.470   0.426 -0.6586  0.0719 -0.5389
 4673TIP3   OH240129   1.059   5.211   0.561  0.4053  0.0802  0.2951
 4673TIP3    H140130   1.040   5.125   0.525 -0.1496  0.0168  0.7318
 4673TIP3    H240131   1.032   5.205   0.653  0.3771  0.7131  0.3330
 4674TIP3   OH240132   2.486   0.946   0.914  0.3959  0.3205 -0.1306
 4674TIP3    H140133   2.576   0.942   0.881  0.6684  2.1794  0.2524
 4674TIP3    H240134   2.447   1.020   0.868 -2.7741 -3.4431 -4.3853
 4675TIP3   OH240135   7.382   6.052   1.577 -0.3321 -0.3065  0.9282
 4675TIP3    H140136   7.382   6.048   1.481 -0.6024  0.2943  0.8973
 4675TIP3    H240137   7.360   6.143   1.597 -2.0548 -0.8184  1.5683
 4676TIP3   OH240138   0.353   7.899   0.210  0.2449 -0.1592  0.1599
 4676TIP3    H140139   0.367   7.928   0.300  0.7452 -0.4731  0.1898
 4676TIP3    H240140   0.258   7.903   0.198 -0.2037 -3.1041  1.7598
 4677TIP3   OH240141   6.864   1.901   7.152  0.2563  0.0526  0.1680
 4677TIP3    H140142   6.916   1.934   7.225  0.3219 -0.6997  0.4717
 4677TIP3    H240143   6.882   1.962   7.080 -0.5678  1.3767  1.0371
 4678TIP3   OH240144   7.688   2.685   1.775 -0.3249  0.2731 -0.6244
 4678TIP3    H140145   7.707   2.733   1.694  0.7699 -0.1257 -0.6175
 4678TIP3    H240146   7.595   2.663   1.768 -0.2587  0.2728 -1.7611
 4679TIP3   OH240147   3.458   6.165   2.381  0.5302  0.4966  0.5304
 4679TIP3    H140148   3.537   6.124   2.346 -0.1176 -1.1069  0.8543
 4679TIP3    H240149   3.408   6.189   2.303  0.8261  0.4896  0.3338
 4680TIP3   OH240150   4.809   5.332   2.097 -0.2423  0.0253 -0.2385
 4680TIP3    H140151   4.881   5.361   2.154 -0.0486 -1.4558  0.3134
 4680TIP3    H240152   4.833   5.243   2.073 -0.3583  0.5765 -2.6324
 4681TIP3   OH240153   6.449   7.750   0.556  0.0400 -0.0346  0.0125
 4681TIP3    H140154   6.429   7.795   0.638  0.1274 -1.3859  0.8145
 4681TIP3    H240155   6.472   7.661   0.583  0.8214 -0.2999 -1.4217
 4682TIP3   OH240156   7.121   6.253   1.361 -0.0218 -0.0509 -0.3194
 4682TIP3    H140157   7.126   6.172   1.411  0.1539 -0.5216 -1.0836
 4682TIP3    H240158   7.191   6.308   1.397 -1.5178  0.6581  1.7069
 4683TIP3   OH240159   2.309   4.342   1.889  0.4422  0.6671 -0.1332
 4683TIP3    H140160   2.374   4.273   1.876  0.0857  0.4848 -0.9853
 4683TIP3    H240161   2.338   4.388   1.969  1.1438  0.0674 -0.0386
 4684TIP3   OH240162   7.435   2.385   1.094  0.1552  0.7560 -0.1125
 4684TIP3    H140163   7.403   2.417   1.178  1.1133  0.6305  0.3224
 4684TIP3    H240164   7.392   2.440   1.029  0.2773  1.6236  0.5252
 4685TIP3   OH240165   5.357   3.185   0.710  0.2162  0.2239  0.3650
 4685TIP3    H140166   5.394   3.264   0.751  0.1152  0.3065  0.2978
 4685TIP3    H240167   5.310   3.141   0.781 -0.8706  0.9200  0.1031
 4686TIP3   OH240168   1.451   1.168   7.157  0.3388  0.1178 -0.3470
 4686TIP3    H140169   1.472   1.252   7.199  0.0731  0.5852 -1.1260
 4686TIP3    H240170   1.372   1.185   7.107  0.2190 -0.6347 -0.4276
 4687TIP3   OH240171   6.313   4.076   0.635  0.0078  0.7058 -0.2441
 4687TIP3    H140172   6.311   4.034   0.549 -0.2356  1.4527 -0.6168
 4687TIP3    H240173   6.372   4.150   0.624 -1.2163  1.7307 -0.2281
 4688TIP3   OH240174   4.078   5.737   6.631 -0.3117 -0.0927 -0.2134
 4688TIP3    H140175   4.073   5.822   6.675  1.6452 -0.0471 -0.0072
 4688TIP3    H240176   4.103   5.758   6.541  0.8539 -0.4438  0.0033
 4689TIP3   OH240177   6.126   4.130   0.816  0.2201  0.7378  0.2515
 4689TIP3    H140178   6.124   4.226   0.820 -1.4245  0.7623 -0.6359
 4689TIP3    H240179   6.181   4.111   0.740 -1.4907  1.0609 -1.1197
 4690TIP3   OH240180   3.636   4.473   7.793  0.6390  0.0450 -0.4099
 4690TIP3    H140181   3.600   4.562   7.787  0.7021  0.3014  1.8812
 4690TIP3    H240182   3.715   4.484   7.847  0.9088 -1.3411 -0.4898
 4691TIP3   OH240183   3.796   6.369   7.448 -0.2525  0.3552  0.0010
 4691TIP3    H140184   3.793   6.355   7.542  0.1521  4.5391  0.8554
 4691TIP3    H240185   3.717   6.420   7.428 -0.5718 -0.8209 -2.0727
 4692TIP3   OH240186   6.635   1.243   0.693  0.9328  0.2738  0.3824
 4692TIP3    H140187   6.715   1.193   0.707  0.1514 -0.9662  0.5243
 4692TIP3    H240188   6.574   1.181   0.653  1.0823  2.0415 -2.9492
 4693TIP3   OH240189   3.850   1.097   0.441 -0.3482 -0.0093 -0.0725
 4693TIP3    H140190   3.837   1.147   0.359  0.5282  1.8240  0.8382
 4693TIP3    H240191   3.785   1.133   0.501 -1.1444 -1.5146  0.0134
 4694TIP3   OH240192   1.115   7.108   7.156 -0.1417  0.4477 -0.4442
 4694TIP3    H140193   1.036   7.149   7.191  0.0578  0.2986  0.1923
 4694TIP3    H240194   1.177   7.180   7.148 -0.1814  0.4797 -0.4680
 4695TIP3   OH240195   5.516   0.775   0.276  0.8238 -0.4206  0.1979
 4695TIP3    H140196   5.540   0.698   0.327  0.6356 -0.9445 -0.4879
 4695TIP3    H240197   5.597   0.825   0.269  1.3941 -1.4179 -0.7929
 4696TIP3   OH240198   4.523   7.661   7.863 -0.1179 -0.4149  0.2574
 4696TIP3    H140199   4.499   7.754   7.864 -4.3346 -1.2592 -0.5360
 4696TIP3    H240200   4.498   7.629   7.950 -3.0348 -1.4770 -0.8193
 4697TIP3   OH240201   4.455   1.472   0.618 -0.2590 -0.4180 -0.6855
 4697TIP3    H140202   4.374   1.459   0.669  1.1404 -1.6436  1.3717
 4697TIP3    H240203   4.426   1.469   0.527 -2.4161 -2.0629 -0.0457
 4698TIP3   OH240204   0.344   7.656   6.920  0.0773  0.1965 -0.4366
 4698TIP3    H140205   0.406   7.655   6.993  0.6384 -0.7010 -0.9114
 4698TIP3    H240206   0.259   7.675   6.961  0.2870 -0.8859  0.5312
 4699TIP3   OH240207   1.112   3.818   1.668 -0.2131 -0.0685  0.7804
 4699TIP3    H140208   1.063   3.798   1.588  2.4030 -2.1536 -0.4532
 4699TIP3    H240209   1.046   3.815   1.738 -2.6099  1.9376 -1.2202
 4700TIP3   OH240210   3.728   5.014   7.601  0.1875 -0.2291  0.6656
 4700TIP3    H140211   3.718   4.932   7.648 -0.2355  0.4632  1.8408
 4700TIP3    H240212   3.672   5.005   7.524  1.4104 -1.6396 -0.1106
 4701TIP3   OH240213   6.738   2.271   7.406  0.2295 -0.4567  0.0458
 4701TIP3    H140214   6.670   2.310   7.461  0.5434  1.3335 -0.7353
 4701TIP3    H240215   6.756   2.186   7.445 -2.3534 -0.9353  0.3607
 4702TIP3   OH240216   0.313   5.281   7.580 -0.2508  0.2712 -0.6228
 4702TIP3    H140217   0.296   5.301   7.672 -1.4673 -1.3870 -0.4502
 4702TIP3    H240218   0.408   5.283   7.572 -0.1715  2.7375  0.0880
 4703TIP3   OH240219   0.876   2.098   0.209  0.6170 -0.3174 -0.1030
 4703TIP3    H140220   0.935   2.074   0.281 -0.5709  2.3495  1.9236
 4703TIP3    H240221   0.789   2.077   0.242 -0.0203  1.7555 -0.3542
 4704TIP3   OH240222   5.874   6.647   7.048 -0.1812  0.3152 -0.2223
 4704TIP3    H140223   5.907   6.729   7.011 -0.7594  0.3944 -0.5753
 4704TIP3    H240224   5.912   6.644   7.136 -1.1310  1.5955  0.2748
 4705TIP3   OH240225   2.431   3.817   1.225  0.3680  0.5853  0.7863
 4705TIP3    H140226   2.521   3.785   1.220  0.0712 -0.1362 -3.7075
 4705TIP3    H240227   2.437   3.910   1.205  0.0972  0.3176 -0.6421
 4706TIP3   OH240228   4.967   0.682   0.641 -0.0388 -0.5060  0.2297
 4706TIP3    H140229   5.057   0.666   0.612  0.0458 -0.6162  0.5479
 4706TIP3    H240230   4.969   0.666   0.736 -0.3960 -0.5224  0.2362
 4707TIP3   OH240231   0.385   4.817   7.559  0.5574  0.2203  0.0935
 4707TIP3    H140232   0.336   4.896   7.540  1.3428  1.1379  1.6706
 4707TIP3    H240233   0.475   4.847   7.572  1.0754 -1.0796 -0.2794
 4708TIP3   OH240234   4.008   0.599   6.551  0.2954  0.5759 -0.1071
 4708TIP3    H140235   3.983   0.508   6.537  3.5758 -0.2377 -1.4480
 4708TIP3    H240236   3.982   0.617   6.642  0.3495 -1.9717  0.4806
 4709TIP3   OH240237   3.240   5.517   0.605 -0.1174  0.0910 -0.7187
 4709TIP3    H140238   3.289   5.450   0.557 -1.2872 -2.0789  0.9038
 4709TIP3    H240239   3.304   5.555   0.665 -0.1687 -2.2609  0.9412
 4710TIP3   OH240240   4.833   0.002   5.898  0.8144 -0.1403  0.2393
 4710TIP3    H140241   4.754  -0.042   5.930  2.3703 -1.4171  2.6548
 4710TIP3    H240242   4.836   0.085   5.946  0.2037  0.6117 -0.9794
 4711TIP3   OH240243   1.822   0.144   0.913 -0.4302  0.3946  0.0984
 4711TIP3    H140244   1.729   0.152   0.890 -0.2447  0.4526 -0.6528
 4711TIP3    H240245   1.845   0.230   0.948 -1.2146 -0.2796  2.4540
 4712TIP3   OH240246   1.632   7.624   0.016  0.2791  0.3674  0.2318
 4712TIP3    H140247   1.660   7.702   0.064 -1.1857  1.5339 -0.7313
 4712TIP3    H240248   1.660   7.640  -0.074  1.1107 -0.8369  0.2484
 4713TIP3   OH240249   3.224   3.913   0.876 -0.1023 -0.0945  0.0402
 4713TIP3    H140250   3.293   3.900   0.810 -1.0911 -0.9411 -0.8553
 4713TIP3    H240251   3.221   3.830   0.923  1.1827  0.7863  1.7743
 4714TIP3   OH240252   0.655   6.554   7.726 -0.7749 -0.5291 -0.2429
 4714TIP3    H140253   0.702   6.627   7.766  2.1659 -1.6714 -1.3477
 4714TIP3    H240254   0.654   6.487   7.794  0.7717 -1.0935 -0.7431
 4715TIP3   OH240255   5.626   7.426   1.943  0.3350  0.2132 -0.1040
 4715TIP3    H140256   5.559   7.487   1.973  0.3072  0.3523 -0.4358
 4715TIP3    H240257   5.617   7.426   1.847  1.6698  1.2715 -0.2703
 4716TIP3   OH240258   7.514   4.394   0.042 -0.2916 -0.0450  0.1935
 4716TIP3    H140259   7.530   4.323  -0.020 -0.7331 -0.6078  0.7170
 4716TIP3    H240260   7.591   4.394   0.100 -0.5652 -0.4888  0.5615
 4717TIP3   OH240261   8.112   0.149   7.279 -0.6219  0.4892 -0.5735
 4717TIP3    H140262   8.103   0.188   7.192  0.5236  1.9572 -0.0873
 4717TIP3    H240263   8.033   0.177   7.326 -0.2462  1.4929 -0.5139
 4718TIP3   OH240264   6.837   6.527   1.107  0.6330 -1.0974 -0.4781
 4718TIP3    H140265   6.856   6.470   1.181  1.3965 -1.5957 -1.0466
 4718TIP3    H240266   6.886   6.490   1.034 -0.4346 -0.8605 -1.3489
 4719TIP3   OH240267   6.268   7.159   0.451 -0.5865  0.2059  0.0586
 4719TIP3    H140268   6.286   7.218   0.377 -0.4207 -1.0486 -0.9445
 4719TIP3    H240269   6.180   7.127   0.435  0.0045 -1.2354 -0.4493
 4720TIP3   OH240270   4.600   4.583   0.256  0.3346 -0.0056  0.1402
 4720TIP3    H140271   4.621   4.625   0.172 -1.0288  0.0213 -0.2053
 4720TIP3    H240272   4.674   4.524   0.272  0.7208  0.1536 -0.9776
 4721TIP3   OH240273   7.312   3.774   6.996 -0.1851  0.0736  0.8702
 4721TIP3    H140274   7.350   3.739   6.915  1.0873  1.2110  0.9300
 4721TIP3    H240275   7.219   3.787   6.975  0.0509  0.0436 -0.3048
 4722TIP3   OH240276   0.509   4.325   6.731  0.0422  0.2700  0.0176
 4722TIP3    H140277   0.561   4.250   6.703 -0.3797 -0.2783  0.6800
 4722TIP3    H240278   0.426   4.316   6.684 -0.6526 -0.6313  1.3533
 4723TIP3   OH240279   4.654   3.551   0.567 -0.4093 -0.2686 -0.2167
 4723TIP3    H140280   4.641   3.475   0.624 -0.4504 -0.1521 -0.0727
 4723TIP3    H240281   4.584   3.542   0.501 -1.4581  0.5388  0.7561
 4724TIP3   OH240282   7.550   2.840   1.493  0.5096  0.7649  0.1400
 4724TIP3    H140283   7.500   2.903   1.544 -0.7354 -0.0576 -0.0175
 4724TIP3    H240284   7.490   2.812   1.424  1.6435  0.7166 -0.8578
 4725TIP3   OH240285   4.211   6.209   0.391  0.1330 -0.5299 -0.1765
 4725TIP3    H140286   4.299   6.171   0.388  0.4728  0.1146  1.1149
 4725TIP3    H240287   4.187   6.218   0.299  0.9803 -1.6873 -0.5416
 4726TIP3   OH240288   6.376   3.986   5.674  0.3447  0.1714 -0.4433
 4726TIP3    H140289   6.439   3.955   5.739 -1.6589 -2.0446  0.6133
 4726TIP3    H240290   6.348   3.906   5.628 -1.9194  0.9617 -0.5715
 4727TIP3   OH240291   0.074   4.528   7.340  0.0334  0.0660  0.7569
 4727TIP3    H140292  -0.002   4.583   7.358  0.7469  1.4484 -0.3185
 4727TIP3    H240293   0.148   4.588   7.337  0.9986 -1.0856  0.5277
 4728TIP3   OH240294   2.134   5.413   0.855 -0.2363 -0.2105 -0.7100
 4728TIP3    H140295   2.162   5.485   0.911  0.9626  0.7713 -2.4463
 4728TIP3    H240296   2.041   5.429   0.839 -0.2210  0.3802 -0.2541
 4729TIP3   OH240297   0.768   5.579   7.560  0.6629  0.4659 -0.6797
 4729TIP3    H140298   0.839   5.521   7.534  1.2392  1.3196 -1.0474
 4729TIP3    H240299   0.811   5.662   7.580 -0.2288  0.9929 -0.9088
 4730TIP3   OH240300   1.513   8.075   6.395 -0.3091 -0.1635  0.1277
 4730TIP3    H140301   1.607   8.090   6.385 -0.3339  0.6104  0.9040
 4730TIP3    H240302   1.473   8.155   6.359 -0.6087  0.1020  1.0320
 4731TIP3   OH240303   2.666   1.009   7.049  0.0717  0.3968  0.1359
 4731TIP3    H140304   2.701   0.958   6.976 -0.6209 -1.4910  1.0343
 4731TIP3    H240305   2.683   0.955   7.126 -0.2087  1.8184  1.2370
 4732TIP3   OH240306   5.479   7.637   2.020 -0.3545  0.7434  0.2918
 4732TIP3    H140307   5.542   7.701   1.986 -1.3663  0.7692 -1.6198
 4732TIP3    H240308   5.399   7.653   1.971 -1.1310 -0.9227  0.9348
 4733TIP3   OH240309   3.285   1.802   0.880 -0.3562  0.3959 -0.4987
 4733TIP3    H140310   3.263   1.709   0.875 -0.1722  0.3400 -0.3156
 4733TIP3    H240311   3.234   1.843   0.811  0.2809  0.0156 -1.2177
 4734TIP3   OH240312   1.057   6.533   1.330 -0.0278 -0.1411 -0.6306
 4734TIP3    H140313   0.964   6.524   1.308 -0.6234  1.5719  0.9686
 4734TIP3    H240314   1.071   6.467   1.399 -0.2935  0.1731 -0.2688
 4735TIP3   OH240315   4.083   1.677   0.288  0.1000  0.2018  0.1640
 4735TIP3    H140316   4.066   1.589   0.321  2.4455 -1.3248 -2.2162
 4735TIP3    H240317   4.096   1.731   0.366 -1.0820 -1.5973  1.6789
 4736TIP3   OH240318   1.275   3.233   2.310 -0.2278  0.5526  0.2351
 4736TIP3    H140319   1.204   3.168   2.306  0.4883 -0.3671  1.7170
 4736TIP3    H240320   1.234   3.310   2.350 -0.1100 -0.4794  2.5262
 4737TIP3   OH240321   0.785   5.822   6.413  0.4775 -0.0962 -0.1868
 4737TIP3    H140322   0.849   5.770   6.462 -1.1017 -0.0398  2.0602
 4737TIP3    H240323   0.768   5.898   6.469  2.0576  2.5492 -2.9742
 4738TIP3   OH240324   4.576   1.373   7.567  0.3057  0.1369 -0.2564
 4738TIP3    H140325   4.547   1.370   7.658 -0.2719  0.1290 -0.4343
 4738TIP3    H240326   4.662   1.414   7.570  0.4488 -0.2018  0.3311
 4739TIP3   OH240327   0.359   6.494   7.749  0.6925 -0.1588  0.6190
 4739TIP3    H140328   0.320   6.461   7.830  2.4297 -0.1555  1.4863
 4739TIP3    H240329   0.422   6.560   7.778  0.0442  1.1784 -0.8692
 4740TIP3   OH240330   3.823   4.433   1.290  1.0105  0.0018  0.4661
 4740TIP3    H140331   3.816   4.440   1.195  0.2788  1.5735  0.6033
 4740TIP3    H240332   3.897   4.490   1.313  0.6170  0.3540  0.8963
 4741TIP3   OH240333   0.840   4.419   7.491  0.4496  0.2532 -0.3773
 4741TIP3    H140334   0.772   4.484   7.513 -0.2622 -0.3156 -0.8598
 4741TIP3    H240335   0.907   4.432   7.558 -1.1675 -0.6956  1.5320
 4742TIP3   OH240336   5.251   6.241   5.778  0.1839  0.0771 -0.3358
 4742TIP3    H140337   5.183   6.194   5.827 -2.1662  1.1020 -2.4032
 4742TIP3    H240338   5.222   6.332   5.776  2.4375  0.8685 -0.0486
 4743TIP3   OH240339   6.814   4.776   6.435 -0.0884 -0.4623  0.1961
 4743TIP3    H140340   6.742   4.713   6.437  0.4917 -1.1305  2.3254
 4743TIP3    H240341   6.795   4.836   6.508 -0.3188  1.5416 -1.4012
 4744TIP3   OH240342   1.306   0.444   6.159 -0.1763  0.0202 -0.0971
 4744TIP3    H140343   1.229   0.406   6.201 -0.6294  2.5395  1.5906
 4744TIP3    H240344   1.290   0.433   6.065 -1.0791 -2.2085  0.2573
 4745TIP3   OH240345   5.349   4.137   6.442  0.0617 -0.2015  0.2867
 4745TIP3    H140346   5.373   4.132   6.534  1.7753  0.7872 -0.0528
 4745TIP3    H240347   5.332   4.230   6.426  0.0997 -0.3097 -0.4499
 4746TIP3   OH240348   0.381   1.011   7.866  0.3174 -0.4232 -0.8496
 4746TIP3    H140349   0.437   1.012   7.944  0.8011 -0.3928 -1.1942
 4746TIP3    H240350   0.292   1.004   7.901  0.5647 -1.0262 -0.3153
 4747TIP3   OH240351   4.763   7.616   0.562 -0.4020  0.4096  0.1752
 4747TIP3    H140352   4.832   7.556   0.587  0.0746  0.3042 -1.3167
 4747TIP3    H240353   4.729   7.650   0.645  0.2902 -0.8048  0.9794
 4748TIP3   OH240354   5.486   2.372   6.361 -0.1213  0.2607 -0.5589
 4748TIP3    H140355   5.460   2.349   6.272  0.8291 -0.1167 -0.7558
 4748TIP3    H240356   5.455   2.462   6.373 -2.0491 -0.3622 -0.5259
 4749TIP3   OH240357   6.736   1.930   6.668 -0.5966  0.2050 -0.2012
 4749TIP3    H140358   6.736   1.929   6.764 -0.6776  0.4067 -0.1998
 4749TIP3    H240359   6.816   1.883   6.644 -0.2644  0.6806 -0.0309
 4750TIP3   OH240360   5.495   7.840   7.537  0.9243 -0.1235  0.0976
 4750TIP3    H140361   5.513   7.747   7.527  1.3289  0.0950 -1.5071
 4750TIP3    H240362   5.422   7.844   7.599  1.8298 -1.4044  1.3210
 4751TIP3   OH240363   7.027   3.346   5.799  0.3611  0.3261 -0.5661
 4751TIP3    H140364   6.952   3.373   5.746 -1.6803 -0.4534  1.7365
 4751TIP3    H240365   7.102   3.358   5.742 -1.4295  1.7417 -2.8004
 4752TIP3   OH240366   3.432   5.340   0.999 -0.4633  0.2041 -0.0964
 4752TIP3    H140367   3.444   5.274   0.931  0.1834 -1.9212  1.9646
 4752TIP3    H240368   3.338   5.340   1.016 -0.2752 -1.5327  1.1038
 4753TIP3   OH240369   0.614   4.991   0.186 -0.2503  0.2770 -0.5877
 4753TIP3    H140370   0.703   4.978   0.152 -0.5944  0.6108 -1.6556
 4753TIP3    H240371   0.558   4.949   0.121 -0.9758  1.4816 -0.7575
 4754TIP3   OH240372   7.377   5.813   0.608 -0.1437 -0.4792  0.4058
 4754TIP3    H140373   7.443   5.869   0.649  0.5698 -1.0280  0.0163
 4754TIP3    H240374   7.407   5.802   0.518 -0.2701 -1.4916  0.4821
 4755TIP3   OH240375   1.223   5.383   7.813 -0.3201  0.1334  0.7431
 4755TIP3    H140376   1.307   5.382   7.859 -0.6526  0.5954  1.3551
 4755TIP3    H240377   1.220   5.468   7.770  0.3829 -0.6144 -0.8952
 4756TIP3   OH240378   4.533   5.997   0.816  0.1670 -0.0934  0.4670
 4756TIP3    H140379   4.560   6.069   0.759  0.2883 -0.1869  0.4076
 4756TIP3    H240380   4.600   5.994   0.885  2.4931 -2.7474 -1.6835
 4757TIP3   OH240381   2.280   1.016   0.124  0.2250  0.0436  0.2973
 4757TIP3    H140382   2.218   0.958   0.170  0.7300 -0.2404  0.6262
 4757TIP3    H240383   2.299   1.085   0.187  0.2122  0.1524  0.1803
 4758TIP3   OH240384   7.531   4.089   0.489 -0.4100  0.5009 -0.1926
 4758TIP3    H140385   7.455   4.047   0.527 -2.0175  2.1976 -1.3020
 4758TIP3    H240386   7.513   4.090   0.395  1.8441 -0.6088 -0.7009
 4759TIP3   OH240387   5.162   6.487   5.787 -0.6352 -0.6978 -0.2812
 4759TIP3    H140388   5.207   6.571   5.786 -0.3007 -0.6999 -4.6447
 4759TIP3    H240389   5.069   6.509   5.786 -0.5478 -0.3260 -1.3537
 4760TIP3   OH240390   6.126   2.862   0.501  0.4913 -0.8929  0.2823
 4760TIP3    H140391   6.056   2.805   0.468  1.7855  0.1347 -5.3566
 4760TIP3    H240392   6.184   2.804   0.549 -1.0728 -3.0766 -0.3032
 4761TIP3   OH240393   5.792   7.886   0.205 -0.9466 -0.0461 -0.2308
 4761TIP3    H140394   5.747   7.845   0.131 -2.3942 -1.1321  1.1730
 4761TIP3    H240395   5.741   7.964   0.224 -0.4384  0.3588 -0.5096
 4762TIP3   OH240396   4.150   0.872   1.276  0.3964  0.3252 -0.5345
 4762TIP3    H140397   4.232   0.884   1.229  0.8578  0.1916  0.2236
 4762TIP3    H240398   4.136   0.777   1.277  0.4695  0.3169 -0.2662
 4763TIP3   OH240399   1.557   2.779   1.581 -0.3428 -0.1911  0.2710
 4763TIP3    H140400   1.644   2.817   1.574  0.2899 -1.6270 -0.0084
 4763TIP3    H240401   1.507   2.843   1.633  0.1235  1.8365 -1.6484
 4764TIP3   OH240402   3.102   4.623   5.383  0.1651 -0.7691 -1.0614
 4764TIP3    H140403   3.019   4.659   5.351  0.1937 -1.6719 -2.2070
 4764TIP3    H240404   3.165   4.694   5.370 -0.2628 -0.3635 -0.9522
 4765TIP3   OH240405   6.699   7.618   1.063 -0.0639 -0.0247 -0.1511
 4765TIP3    H140406   6.680   7.569   1.143  0.0733 -1.0312 -0.7118
 4765TIP3    H240407   6.753   7.691   1.092 -2.0704  1.0846  1.0297
 4766TIP3   OH240408   0.351   5.000   0.832 -0.0788  0.4525  0.0246
 4766TIP3    H140409   0.392   5.010   0.745  1.0454  0.8538  0.5796
 4766TIP3    H240410   0.306   5.083   0.846 -0.8919  0.1069 -0.4816
 4767TIP3   OH240411   4.145   4.135   1.872  0.8108 -0.0641 -0.1705
 4767TIP3    H140412   4.082   4.118   1.943  1.0472  0.2944  0.1314
 4767TIP3    H240413   4.189   4.216   1.898  1.2303 -0.1809 -0.4982
 4768TIP3   OH240414   0.113   1.047   1.621  0.6250  0.6352 -0.4778
 4768TIP3    H140415   0.202   1.043   1.658  0.6780 -0.3823 -0.7011
 4768TIP3    H240416   0.100   0.962   1.579 -1.1312  0.0500  1.1156
 4769TIP3   OH240417   4.954   5.203   5.038 -0.1251 -0.4964  0.3786
 4769TIP3    H140418   4.943   5.272   5.103  1.5371 -0.5768  0.7722
 4769TIP3    H240419   5.009   5.242   4.970  0.4748 -1.2903  0.3982
 4770TIP3   OH240420   1.886   3.008   0.871 -0.7341  0.2623  0.3627
 4770TIP3    H140421   1.821   2.985   0.805 -1.4677 -1.7183  1.6942
 4770TIP3    H240422   1.958   2.947   0.856 -0.5564  0.3434  0.8525
 4771TIP3   OH240423   7.745   2.968   0.849  0.4304 -0.3695 -0.0593
 4771TIP3    H140424   7.674   2.909   0.875  0.8749 -0.7064  0.4166
 4771TIP3    H240425   7.711   3.014   0.772 -0.1137 -0.8885 -0.1387
 4772TIP3   OH240426   4.750   2.682   7.056  0.4959 -0.3254  0.0140
 4772TIP3    H140427   4.724   2.774   7.062 -2.8496 -1.1539 -0.0829
 4772TIP3    H240428   4.846   2.685   7.057  0.6233  3.3029 -2.3956
 4773TIP3   OH240429   5.326   4.771   7.574 -0.0946 -0.7174 -0.5221
 4773TIP3    H140430   5.421   4.760   7.567  0.3422  2.4761 -1.0357
 4773TIP3    H240431   5.314   4.828   7.650 -1.4075  0.5323 -1.6113
 4774TIP3   OH240432   7.121   1.388   1.702 -0.1682  0.3132  0.6263
 4774TIP3    H140433   7.120   1.341   1.619 -1.1005 -0.2729  0.9674
 4774TIP3    H240434   7.112   1.321   1.769  0.2823  0.8095  1.2082
 4775TIP3   OH240435   5.150   5.641   1.714 -0.0078  0.0441  0.2202
 4775TIP3    H140436   5.203   5.672   1.641 -0.6758  1.2764  0.2234
 4775TIP3    H240437   5.090   5.577   1.675 -1.7613  2.1745 -0.7978
 4776TIP3   OH240438   6.909   6.158   7.050 -0.1243 -0.3503 -0.0807
 4776TIP3    H140439   6.911   6.064   7.068 -0.4649 -0.2097  0.7490
 4776TIP3    H240440   6.947   6.198   7.127  0.0792  0.1945 -0.4595
 4777TIP3   OH240441   3.399   1.052   1.401 -0.1492 -0.1958 -0.0539
 4777TIP3    H140442   3.373   1.004   1.480  0.4160  0.8247  0.7771
 4777TIP3    H240443   3.494   1.059   1.407 -0.1417  0.2501 -0.6142
 4778TIP3   OH240444   7.948   1.609   5.330  0.4977 -0.6947 -0.2755
 4778TIP3    H140445   7.884   1.646   5.269  0.4010  0.2763  0.3885
 4778TIP3    H240446   7.916   1.634   5.417  2.2767  0.7125  0.0528
 4779TIP3   OH240447   7.058   0.338   0.942  0.3582 -0.9260 -0.0819
 4779TIP3    H140448   6.972   0.310   0.911 -0.8636  0.6488  1.6659
 4779TIP3    H240449   7.095   0.387   0.869 -1.1618  0.1829 -0.1460
 4780TIP3   OH240450   0.547   7.088   7.370 -0.4520  0.2155 -0.4620
 4780TIP3    H140451   0.536   7.094   7.275 -0.2842  0.6881 -0.4529
 4780TIP3    H240452   0.480   7.147   7.405 -0.1168  0.5081 -0.3078
 4781TIP3   OH240453   3.107   1.464   5.772 -0.3978  0.5056 -0.0854
 4781TIP3    H140454   3.017   1.463   5.804 -0.4969  0.9478 -0.3340
 4781TIP3    H240455   3.157   1.504   5.844 -0.6161  1.4757 -0.4545
 4782TIP3   OH240456   5.510   7.403   2.214 -0.0186  0.1955  0.8015
 4782TIP3    H140457   5.581   7.371   2.158 -0.2919  0.3257  0.3841
 4782TIP3    H240458   5.506   7.497   2.197 -1.2631 -0.0352 -0.2880
 4783TIP3   OH240459   6.203   2.403   0.570 -0.0210  0.0538 -0.2262
 4783TIP3    H140460   6.285   2.385   0.617  1.3244 -0.1028 -2.4748
 4783TIP3    H240461   6.169   2.316   0.547  0.0993  0.1383 -0.7426
 4784TIP3   OH240462   7.834   2.790   1.509 -0.0530  0.2781 -0.5619
 4784TIP3    H140463   7.753   2.834   1.485 -0.2396  0.7132  0.7909
 4784TIP3    H240464   7.887   2.857   1.551  0.3172 -0.3988  0.0835
 4785TIP3   OH240465   1.141   4.326   6.808 -0.4144  0.3114  0.0212
 4785TIP3    H140466   1.198   4.382   6.859 -0.6764  0.1673  0.4844
 4785TIP3    H240467   1.196   4.291   6.738  0.8678 -2.0151  2.0330
 4786TIP3   OH240468   2.286   6.278   5.902 -0.2410  0.7688  0.5737
 4786TIP3    H140469   2.355   6.268   5.968 -1.5609  0.6363  1.9981
 4786TIP3    H240470   2.232   6.200   5.913  0.6324 -0.3224 -2.1361
 4787TIP3   OH240471   7.210   1.130   7.755  0.1294  0.0429  0.4138
 4787TIP3    H140472   7.259   1.137   7.837 -0.0656 -0.6272  0.5975
 4787TIP3    H240473   7.213   1.037   7.733  0.7011  0.2939 -0.6659
 4788TIP3   OH240474   4.920   0.074   7.634  0.7097 -0.3944  0.3930
 4788TIP3    H140475   4.876   0.154   7.664 -0.9546 -0.6382 -1.2522
 4788TIP3    H240476   5.001   0.071   7.685  0.3415  1.8032  1.2090
 4789TIP3   OH240477   5.524   7.895   1.042  0.1155  0.3629 -0.3822
 4789TIP3    H140478   5.571   7.812   1.047 -0.3222  0.1495  0.3044
 4789TIP3    H240479   5.590   7.961   1.064  0.2507  0.1227 -0.0580
 4790TIP3   OH240480   6.746   6.090   1.937 -0.7188  0.6452  0.2325
 4790TIP3    H140481   6.685   6.053   2.000 -0.7669 -0.4037 -0.3883
 4790TIP3    H240482   6.778   6.171   1.977  1.8870 -1.5975  3.2289
 4791TIP3   OH240483   2.273   5.493   5.629  0.4427 -0.1179  0.3682
 4791TIP3    H140484   2.180   5.469   5.629  0.3109  0.3078  1.7093
 4791TIP3    H240485   2.313   5.434   5.565 -0.3239 -2.1026  1.6118
 4792TIP3   OH240486   6.819   7.088   1.748 -0.5019 -0.4300  0.1439
 4792TIP3    H140487   6.881   7.101   1.677 -0.6196 -1.8930 -0.2611
 4792TIP3    H240488   6.749   7.035   1.709 -0.9329 -0.6114  1.1401
 4793TIP3   OH240489   4.869   1.804   6.705 -0.3370  0.0386 -0.1686
 4793TIP3    H140490   4.830   1.877   6.753  0.3253  0.4778 -0.2958
 4793TIP3    H240491   4.823   1.727   6.739  0.8804  0.1952  2.0064
 4794TIP3   OH240492   5.202   0.917   0.743  0.5694 -0.0082  0.4908
 4794TIP3    H140493   5.208   0.958   0.656  1.4153  0.0411  0.5644
 4794TIP3    H240494   5.231   0.827   0.729 -0.6988 -0.4348  0.4524
 4795TIP3   OH240495   3.835   2.313   6.534  0.7268  0.6844  0.1518
 4795TIP3    H140496   3.766   2.368   6.573  1.9751  1.3793  1.5087
 4795TIP3    H240497   3.801   2.288   6.449 -1.0338  1.3336  0.6224
 4796TIP3   OH240498   8.106   3.209   7.039  0.1846  0.3608 -0.4153
 4796TIP3    H140499   8.017   3.238   7.017  0.1290  0.0256 -0.6374
 4796TIP3    H240500   8.123   3.247   7.125 -0.5238 -0.3138  0.0366
 4797TIP3   OH240501   4.528   3.448   7.397 -0.2734 -0.1981  0.3107
 4797TIP3    H140502   4.568   3.361   7.397 -0.5446 -0.3985  3.0238
 4797TIP3    H240503   4.572   3.494   7.468 -1.4537  1.2527  0.1407
 4798TIP3   OH240504   3.734   4.281   0.770  0.3407 -0.1323 -0.3170
 4798TIP3    H140505   3.694   4.322   0.847  2.3680 -0.7729  1.1460
 4798TIP3    H240506   3.794   4.216   0.805 -0.8704 -2.6306 -2.5327
 4799TIP3   OH240507   3.281   2.937   1.324  0.3633  0.1122 -0.2734
 4799TIP3    H140508   3.319   2.968   1.241 -0.1761  2.4979  0.3108
 4799TIP3    H240509   3.331   2.983   1.392  0.1709 -1.0929  0.7173
 4800TIP3   OH240510   2.064   4.328   1.770  1.1868  0.4411 -0.1331
 4800TIP3    H140511   2.030   4.239   1.780 -0.8547  1.3202  1.1699
 4800TIP3    H240512   2.150   4.325   1.812  0.6313 -0.6093  0.9834
 4801TIP3   OH240513   6.452   5.173   0.027 -0.2555  0.5489 -0.0167
 4801TIP3    H140514   6.542   5.139   0.027 -0.1448  0.8255  0.3645
 4801TIP3    H240515   6.462   5.265   0.054 -0.7274  0.3350  0.9336
 4802TIP3   OH240516   2.772   4.212   6.841  0.2890  0.1729 -0.2463
 4802TIP3    H140517   2.843   4.226   6.904 -1.2263  0.1658  1.5354
 4802TIP3    H240518   2.736   4.299   6.826 -0.6205 -0.0591  0.4828
 4803TIP3   OH240519   3.850   4.833   6.426  0.6135  0.5233 -0.4544
 4803TIP3    H140520   3.760   4.866   6.424  0.2165 -0.5115 -0.4394
 4803TIP3    H240521   3.851   4.771   6.499  2.0219  2.3418  1.1719
 4804TIP3   OH240522   7.444   0.772   1.432  0.0935  0.1581  0.8629
 4804TIP3    H140523   7.501   0.757   1.357  0.4022 -0.0536  1.1348
 4804TIP3    H240524   7.360   0.796   1.394  0.2019 -0.1064  0.4466
 4805TIP3   OH240525   3.081   5.317   7.140  0.3338  0.8870 -0.4469
 4805TIP3    H140526   3.136   5.355   7.071  1.0187 -1.2131 -1.1422
 4805TIP3    H240527   3.036   5.245   7.097  0.9697 -0.6614  1.3247
 4806TIP3   OH240528   1.833   8.110   7.725 -0.1113 -0.2906 -0.4112
 4806TIP3    H140529   1.910   8.163   7.745  0.5411 -1.5780  0.7265
 4806TIP3    H240530   1.774   8.169   7.679  0.5099  1.4602  0.8948
 4807TIP3   OH240531   2.226   3.903   0.655 -0.0746  0.1996  0.4822
 4807TIP3    H140532   2.212   3.813   0.684 -0.0542 -0.4598 -1.4290
 4807TIP3    H240533   2.321   3.913   0.652 -0.0722  0.5802  1.4977
 4808TIP3   OH240534   4.555   0.012   7.605 -0.0992  0.4436  0.2227
 4808TIP3    H140535   4.500   0.001   7.682 -0.7794  2.0671  0.0056
 4808TIP3    H240536   4.580  -0.077   7.580 -0.6792 -0.1584  1.7201
 4809TIP3   OH240537   4.862   4.701   6.539  0.0794 -0.0873 -0.3415
 4809TIP3    H140538   4.868   4.606   6.542 -2.1953 -0.2879  2.2229
 4809TIP3    H240539   4.952   4.732   6.551  0.6180 -1.9405  0.7163
 4810TIP3   OH240540   3.397   4.096   6.175 -0.3808 -0.3407 -0.3416
 4810TIP3    H140541   3.334   4.120   6.243 -0.8303  0.5260 -1.0377
 4810TIP3    H240542   3.482   4.117   6.213 -0.3867 -2.4976  1.0123
 4811TIP3   OH240543   7.233   3.349   6.792  0.1965  0.4319 -0.3111
 4811TIP3    H140544   7.276   3.324   6.874  0.0147  0.5423 -0.1776
 4811TIP3    H240545   7.149   3.302   6.794 -0.2759  1.2590  0.0831
 4812TIP3   OH240546   4.937   7.023   0.101 -0.2863  0.0170  0.5022
 4812TIP3    H140547   4.852   7.040   0.142 -1.5299 -0.4140 -1.7562
 4812TIP3    H240548   4.974   7.109   0.084  0.2972  0.2172  2.4474
 4813TIP3   OH240549   1.797   2.921   1.440  0.4442 -0.2504 -0.2070
 4813TIP3    H140550   1.820   2.925   1.348 -0.7896  3.0593 -0.5255
 4813TIP3    H240551   1.876   2.951   1.486  1.1121 -2.0562 -0.1262
 4814TIP3   OH240552   6.413   6.369   5.808 -0.2407  0.1946 -0.3920
 4814TIP3    H140553   6.391   6.282   5.776 -1.1252  1.0147 -2.1202
 4814TIP3    H240554   6.330   6.404   5.840  0.0520  0.5466  0.0003
 4815TIP3   OH240555   7.083   4.196   6.485  0.3672  0.2411  0.2101
 4815TIP3    H140556   7.016   4.263   6.500  0.2155  0.5481 -1.5777
 4815TIP3    H240557   7.165   4.241   6.505  0.3452  1.3426 -1.8752
 4816TIP3   OH240558   6.834   1.434   0.461  0.1003 -0.3440 -0.0290
 4816TIP3    H140559   6.857   1.369   0.528 -0.8217  0.3587  1.0072
 4816TIP3    H240560   6.741   1.449   0.474  0.3084  1.2230 -0.2216
 4817TIP3   OH240561   3.913   4.445   7.620 -0.2925  0.4305 -0.1139
 4817TIP3    H140562   3.964   4.501   7.679 -0.5589 -1.1497  1.7304
 4817TIP3    H240563   3.822   4.466   7.639 -0.3745  0.1577 -0.1907
 4818TIP3   OH240564   7.923   2.111   6.990  0.4885  0.4511 -0.5716
 4818TIP3    H140565   8.016   2.134   6.985  1.0651 -1.7343 -1.2095
 4818TIP3    H240566   7.877   2.190   6.962  2.2155  1.2141 -1.4204
 4819TIP3   OH240567   8.018   2.746   6.367  0.6574  0.4536  0.2968
 4819TIP3    H140568   7.991   2.822   6.418 -0.5779 -0.8405  1.6501
 4819TIP3    H240569   8.108   2.766   6.341  1.4968  1.0627  3.2549
 4820TIP3   OH240570   7.816   2.507   1.502 -0.4374 -0.2708  0.1379
 4820TIP3    H140571   7.844   2.596   1.523  0.0968 -0.3188 -0.3717
 4820TIP3    H240572   7.733   2.518   1.457  0.8178  0.1443 -2.2026
 4821TIP3   OH240573   0.121   6.580   0.091  0.0829  0.3076 -0.0061
 4821TIP3    H140574   0.049   6.517   0.098 -1.6524  2.2678  1.2624
 4821TIP3    H240575   0.087   6.648   0.031  0.9724  1.1381  0.4038
 4822TIP3   OH240576   7.184   7.359   1.088 -0.1005 -0.5528 -0.1108
 4822TIP3    H140577   7.204   7.446   1.121  1.4157 -0.7454 -0.4760
 4822TIP3    H240578   7.088   7.354   1.091 -0.1390  0.4414  1.6089
 4823TIP3   OH240579   6.883   7.973   7.708  0.0071 -0.0791  0.4106
 4823TIP3    H140580   6.873   7.886   7.746 -0.2979 -0.4030 -0.4015
 4823TIP3    H240581   6.971   7.973   7.671  0.5894  0.4844  1.6937
 4824TIP3   OH240582   0.171   4.443   0.090 -0.1919  0.2991  0.0983
 4824TIP3    H140583   0.259   4.455   0.053 -1.1525  0.7189 -2.2090
 4824TIP3    H240584   0.115   4.500   0.037 -2.4772 -2.7379 -0.9954
 4825TIP3   OH240585   7.563   4.150   7.854 -0.4008 -0.0588  0.1964
 4825TIP3    H140586   7.481   4.103   7.842 -0.4389  0.2790 -0.9383
 4825TIP3    H240587   7.622   4.115   7.787 -0.0608  0.6726  0.1017
 4826TIP3   OH240588   5.161   7.671   7.008  0.2166 -0.2629 -0.0302
 4826TIP3    H140589   5.175   7.625   6.925  1.0354  0.0951 -0.0992
 4826TIP3    H240590   5.100   7.615   7.056  0.4906 -0.9662 -0.4835
 4827TIP3   OH240591   6.197   6.101   2.142  0.0919  0.3182  0.7377
 4827TIP3    H140592   6.218   6.019   2.099 -1.1968  0.9942 -1.3139
 4827TIP3    H240593   6.279   6.151   2.141 -0.0368  0.5752 -1.6352
 4828TIP3   OH240594   6.311   5.854   2.048  0.7466  0.2191  0.2387
 4828TIP3    H140595   6.285   5.773   2.005  1.5953 -0.0939  0.3063
 4828TIP3    H240596   6.394   5.834   2.090  1.5336  1.4273 -0.6590
 4829TIP3   OH240597   2.811   5.987   6.911  0.2859 -0.0926  0.0877
 4829TIP3    H140598   2.723   5.966   6.879 -0.1588  0.7178  0.7313
 4829TIP3    H240599   2.857   6.021   6.835 -0.4645  0.9537  0.0867
 4830TIP3   OH240600   1.453   6.154   7.378  0.0490  0.7040  0.0244
 4830TIP3    H140601   1.390   6.226   7.388 -0.2290  0.6872 -1.3440
 4830TIP3    H240602   1.459   6.141   7.283  0.5498 -0.6866  0.2261
 4831TIP3   OH240603   0.268   7.205   7.360 -0.4854 -0.1070  0.2586
 4831TIP3    H140604   0.175   7.230   7.369 -0.6740 -0.9751  0.8150
 4831TIP3    H240605   0.270   7.150   7.282 -0.4582 -0.1869  0.3161
 4832TIP3   OH240606   1.086   8.076   0.963  0.5365  0.4749 -0.2816
 4832TIP3    H140607   1.171   8.032   0.963  0.1918 -0.2182 -1.3220
 4832TIP3    H240608   1.032   8.025   0.902 -0.9866  0.2367  1.1842
 4833TIP3   OH240609   5.922   0.792   0.407 -0.0600 -0.4636  0.0346
 4833TIP3    H140610   6.012   0.779   0.378 -0.5050 -3.5588 -0.2621
 4833TIP3    H240611   5.904   0.718   0.465 -1.9921  0.8581  1.2443
 4834TIP3   OH240612   2.133   2.884   1.312 -0.2520  0.4387  0.0324
 4834TIP3    H140613   2.091   2.970   1.324  0.4883  0.9683 -0.9769
 4834TIP3    H240614   2.225   2.905   1.294  0.2773 -0.6488  1.2622
 4835TIP3   OH240615   3.611   0.246   0.607 -0.4298 -0.6293 -0.3548
 4835TIP3    H140616   3.643   0.295   0.531 -2.8120  0.5165 -0.7049
 4835TIP3    H240617   3.590   0.159   0.572 -0.3470 -0.5088 -0.7085
 4836TIP3   OH240618   1.855   7.870   7.144 -0.1328 -0.1740 -0.1127
 4836TIP3    H140619   1.925   7.820   7.185  0.7636  0.5037 -0.7633
 4836TIP3    H240620   1.864   7.958   7.181  0.1855  0.2410 -1.1368
 4837TIP3   OH240621   6.375   5.640   7.253  0.2428  0.2780  0.1506
 4837TIP3    H140622   6.305   5.576   7.266  0.2430  0.2907  0.2179
 4837TIP3    H240623   6.429   5.632   7.332  0.1189  0.5164  0.2608
 4838TIP3   OH240624   3.481   4.937   6.891  0.0154  0.0641  0.4631
 4838TIP3    H140625   3.449   5.027   6.891  2.1519  0.9326 -1.2433
 4838TIP3    H240626   3.495   4.918   6.798  1.8001 -1.1628  0.9470
 4839TIP3   OH240627   5.373   2.426   0.886  0.1894 -0.2109 -0.0988
 4839TIP3    H140628   5.330   2.483   0.951  1.1946 -2.1966  2.4688
 4839TIP3    H240629   5.325   2.443   0.805 -1.8556  1.6461  1.3573
 4840TIP3   OH240630   1.008   2.060   7.183  0.1863  0.0508  0.2661
 4840TIP3    H140631   1.025   2.130   7.120  1.1383  0.5526  1.0457
 4840TIP3    H240632   0.962   2.104   7.255  1.9135  0.1992  1.3499
 4841TIP3   OH240633   0.293   7.438   6.480  0.5503  0.2789 -0.1832
 4841TIP3    H140634   0.201   7.433   6.507  0.6543 -2.6108 -0.0511
 4841TIP3    H240635   0.342   7.422   6.561  1.0464 -1.0702 -0.7180
 4842TIP3   OH240636   7.909   0.065   1.409  1.1884  0.7087  0.6335
 4842TIP3    H140637   7.884   0.071   1.502  0.3044  1.6112  0.3557
 4842TIP3    H240638   8.003   0.046   1.411  1.1420  0.5225  1.7136
 4843TIP3   OH240639   2.588   0.022   1.964  0.1149  0.2645 -0.1831
 4843TIP3    H140640   2.651   0.033   2.036  1.4831 -0.5056 -1.2078
 4843TIP3    H240641   2.548   0.108   1.954  2.9782  1.5960 -1.2160
 4844TIP3   OH240642   3.598   8.001   7.038  0.1908 -0.0866 -0.0701
 4844TIP3    H140643   3.544   7.923   7.026 -0.9882  0.8224 -0.8493
 4844TIP3    H240644   3.536   8.072   7.056  1.2018  0.7845  0.1288
 4845TIP3   OH240645   5.927   4.157   7.273 -0.3155  0.6788  0.1352
 4845TIP3    H140646   5.974   4.228   7.315 -0.4639  1.7686 -1.4650
 4845TIP3    H240647   5.844   4.195   7.246 -2.0146 -1.0817  2.4791
 4846TIP3   OH240648   7.463   1.774   1.054  0.2863  0.0463 -0.7838
 4846TIP3    H140649   7.526   1.719   1.101 -0.8774 -1.0652 -0.4579
 4846TIP3    H240650   7.492   1.864   1.072  1.3107 -0.4083 -0.0028
 4847TIP3   OH240651   8.004   1.122   6.767 -0.3988 -0.0755  0.7055
 4847TIP3    H140652   7.999   1.181   6.842  2.6893  2.0775 -0.5877
 4847TIP3    H240653   8.074   1.061   6.788  0.1744  0.2519 -0.2026
 4848TIP3   OH240654   1.826   5.371   2.391 -0.1022  0.2991 -0.8279
 4848TIP3    H140655   1.872   5.305   2.443 -0.7649  1.0964  0.8363
 4848TIP3    H240656   1.763   5.409   2.451  1.6026  3.8913 -1.0371
 4849TIP3   OH240657   6.083   7.599   7.139  0.5817  0.3517 -0.0372
 4849TIP3    H140658   6.009   7.624   7.083 -0.1454 -0.1276  0.6796
 4849TIP3    H240659   6.128   7.531   7.089  0.7825  0.9222 -0.6528
 4850TIP3   OH240660   4.454   7.180   7.415  0.2971  0.1869 -0.1288
 4850TIP3    H140661   4.388   7.206   7.479  1.4564  0.1439  1.1398
 4850TIP3    H240662   4.534   7.223   7.444  1.0412 -0.4900 -1.0928
 4851TIP3   OH240663   1.584   3.891   0.642 -0.0762 -0.0420 -0.1398
 4851TIP3    H140664   1.621   3.918   0.558 -2.8242  2.1558 -0.8034
 4851TIP3    H240665   1.636   3.815   0.668  1.3622 -0.3586 -3.4487
 4852TIP3   OH240666   0.427   8.001   0.436 -0.3798 -0.2099  0.4498
 4852TIP3    H140667   0.504   8.043   0.397  0.2314 -2.3086 -0.7579
 4852TIP3    H240668   0.452   7.988   0.528 -0.0943  0.8485  0.5434
 4853TIP3   OH240669   3.787   2.649   6.848  0.2443 -0.3446 -0.0680
 4853TIP3    H140670   3.753   2.720   6.794 -1.9941 -0.8362  0.6026
 4853TIP3    H240671   3.735   2.653   6.928  2.1605 -0.8539  1.2715
 4854TIP3   OH240672   7.114   0.176   5.940  0.0304  0.0791  0.7043
 4854TIP3    H140673   7.060   0.097   5.949  0.8239 -0.2498  3.6533
 4854TIP3    H240674   7.071   0.226   5.871 -2.3005 -1.5384  0.8517
 4855TIP3   OH240675   7.684   6.262   2.314 -0.0936 -0.5348  0.9784
 4855TIP3    H140676   7.764   6.224   2.275  0.5173  0.4204  1.2645
 4855TIP3    H240677   7.689   6.355   2.292 -0.7507 -0.3363  1.6523
 4856TIP3   OH240678   0.822   2.639   7.338 -0.0971  0.3072 -0.4135
 4856TIP3    H140679   0.747   2.689   7.370 -2.0223 -1.8026 -1.4110
 4856TIP3    H240680   0.835   2.672   7.249 -0.6867 -0.2054 -0.6957
 4857TIP3   OH240681   0.235   2.111   0.714  0.1204 -0.0367 -0.0761
 4857TIP3    H140682   0.258   2.163   0.791  0.6002 -2.6808  1.7065
 4857TIP3    H240683   0.309   2.051   0.703 -0.7584 -0.9052 -1.4979
 4858TIP3   OH240684   6.726   5.247   2.162  0.3038 -0.1260 -0.6420
 4858TIP3    H140685   6.711   5.270   2.253  1.4588 -2.2979  0.1742
 4858TIP3    H240686   6.660   5.296   2.113 -1.4840 -0.2258  1.5267
 4859TIP3   OH240687   0.974   6.486   7.533 -0.6118 -0.8511 -0.4607
 4859TIP3    H140688   1.018   6.506   7.616  0.6775 -1.8027 -0.8616
 4859TIP3    H240689   0.892   6.535   7.536  0.6532  1.3784  0.1657
 4860TIP3   OH240690   5.783   7.403   7.496 -0.6845 -0.7027 -1.0679
 4860TIP3    H140691   5.766   7.310   7.487  0.8311 -1.2354  0.8950
 4860TIP3    H240692   5.878   7.410   7.501 -0.7621  0.3107  3.5006
 4861TIP3   OH240693   5.294   1.213   6.602 -0.0920  0.3008  0.4839
 4861TIP3    H140694   5.382   1.244   6.625 -0.2369 -0.2049  1.7695
 4861TIP3    H240695   5.290   1.222   6.507  1.1901  0.7576  0.4569
 4862TIP3   OH240696   4.191   1.927   0.067 -0.3490 -0.4868 -0.8824
 4862TIP3    H140697   4.105   1.924   0.111 -0.4013  0.5788 -0.8744
 4862TIP3    H240698   4.251   1.889   0.131 -0.9629 -2.2590 -1.3149
 4863TIP3   OH240699   4.193   2.021   1.382 -0.7184  0.0527  0.0836
 4863TIP3    H140700   4.201   1.942   1.328  2.3617 -0.2935  0.8963
 4863TIP3    H240701   4.235   1.999   1.465 -0.9477  2.1374  0.8249
 4864TIP3   OH240702   0.554   6.909   0.362  0.3909  0.2651  0.0713
 4864TIP3    H140703   0.527   6.821   0.387  2.4314 -0.6548 -0.8060
 4864TIP3    H240704   0.588   6.948   0.443 -2.2548  1.0276  0.9222
 4865TIP3   OH240705   7.171   1.117   0.494 -0.4452  0.1979 -0.5846
 4865TIP3    H140706   7.222   1.181   0.445 -0.0965  0.4458  0.0831
 4865TIP3    H240707   7.113   1.077   0.429  1.5122 -1.0661 -1.6610
 4866TIP3   OH240708   6.721   7.957   6.420 -0.8379 -0.1741  0.0538
 4866TIP3    H140709   6.787   7.958   6.489 -0.2598  1.7339 -0.4709
 4866TIP3    H240710   6.719   8.047   6.387 -0.8567 -1.0702 -2.6253
 4867TIP3   OH240711   4.641   4.180   6.995  0.1805  0.4036 -0.2582
 4867TIP3    H140712   4.615   4.205   7.084  2.2663  3.6627 -0.3762
 4867TIP3    H240713   4.613   4.253   6.940  0.2924 -0.8457 -2.0676
 4868TIP3   OH240714   2.394   4.348   2.785 -0.7777 -0.8131  0.1509
 4868TIP3    H140715   2.386   4.410   2.858  1.3618 -0.7273  0.3812
 4868TIP3    H240716   2.325   4.283   2.801 -1.6677  0.3114  1.0936
 4869TIP3   OH240717   6.469   5.932   6.313 -0.0406 -0.2827  0.2780
 4869TIP3    H140718   6.557   5.969   6.323 -0.6582  1.3154  0.1651
 4869TIP3    H240719   6.481   5.838   6.322  1.4525  0.0137  1.9239
 4870TIP3   OH240720   6.039   3.616   6.635 -0.7663 -0.0310 -0.4626
 4870TIP3    H140721   6.056   3.705   6.605 -1.1847 -0.2052 -1.2507
 4870TIP3    H240722   6.108   3.598   6.698 -0.7904  0.9178 -0.1514
 4871TIP3   OH240723   1.606   0.512   1.243  0.4031 -0.6016  0.2229
 4871TIP3    H140724   1.548   0.518   1.318 -0.4513 -1.8121 -0.3098
 4871TIP3    H240725   1.562   0.452   1.183  0.6491  0.9321 -1.6079
 4872TIP3   OH240726   0.009   0.426   0.412 -0.2601  0.2551  0.1380
 4872TIP3    H140727  -0.025   0.369   0.481  0.6364 -2.3729 -1.4474
 4872TIP3    H240728   0.085   0.469   0.451 -0.5646 -0.1212  1.1849
 4873TIP3   OH240729   4.256   0.371   5.285 -0.0766  0.2066 -0.2847
 4873TIP3    H140730   4.179   0.412   5.245 -0.0050  0.2779 -0.3488
 4873TIP3    H240731   4.329   0.399   5.231 -0.0272 -0.0100 -0.3323
 4874TIP3   OH240732   2.906   2.801   1.207  0.2917 -0.4740 -0.0253
 4874TIP3    H140733   2.915   2.707   1.193  1.9373 -0.3282 -0.2084
 4874TIP3    H240734   2.971   2.821   1.275 -0.9563  0.3334  0.9677
 4875TIP3   OH240735   1.786   1.604   1.487 -0.0620  0.1935 -0.0591
 4875TIP3    H140736   1.874   1.566   1.491 -1.6513 -4.0292 -0.2440
 4875TIP3    H240737   1.755   1.582   1.399 -2.0054 -0.2559  0.6917
 4876TIP3   OH240738   1.852   0.796   5.550 -0.0343 -0.4601 -0.4103
 4876TIP3    H140739   1.880   0.884   5.576  0.4116 -1.1396  1.5109
 4876TIP3    H240740   1.919   0.769   5.486 -0.1962  0.5750 -1.0597
 4877TIP3   OH240741   6.161   2.922   0.233  0.4162 -0.0160 -0.0535
 4877TIP3    H140742   6.159   2.874   0.316  1.4133  0.1942  0.1064
 4877TIP3    H240743   6.091   2.986   0.241  0.9575  0.4808  0.9462
 4878TIP3   OH240744   4.517   5.741   0.712 -0.1819 -0.1575 -0.3411
 4878TIP3    H140745   4.485   5.828   0.738 -1.4576 -0.6811 -0.0565
 4878TIP3    H240746   4.520   5.691   0.794  0.6837 -0.3472 -0.4803
 4879TIP3   OH240747   6.319   5.053   0.225  0.2142  0.0259 -0.1193
 4879TIP3    H140748   6.279   5.139   0.236 -0.0987 -0.2681  1.1218
 4879TIP3    H240749   6.371   5.061   0.145  0.3993  1.4373  0.1244
 4880TIP3   OH240750   1.987   4.001   6.460 -0.8878 -0.2517  0.1782
 4880TIP3    H140751   2.023   3.942   6.527  0.9446  0.4618 -0.1362
 4880TIP3    H240752   1.995   4.088   6.499 -0.6451  0.0820 -0.6027
 4881TIP3   OH240753   0.303   4.017   7.455  0.0912  0.1096  0.2461
 4881TIP3    H140754   0.290   4.107   7.484  0.4725 -0.6220  2.9167
 4881TIP3    H240755   0.398   4.007   7.448  0.0873 -0.3507  0.8637
 4882TIP3   OH240756   3.263   6.201   2.572  0.0336 -0.2299  0.5462
 4882TIP3    H140757   3.211   6.268   2.527  1.5764  0.5099 -0.2352
 4882TIP3    H240758   3.345   6.198   2.523  0.5324 -1.7327  1.4145
 4883TIP3   OH240759   2.836   1.001   0.639  0.2239  0.3270 -0.0258
 4883TIP3    H140760   2.921   1.026   0.602 -0.4048  3.2425  0.2671
 4883TIP3    H240761   2.782   0.981   0.562  1.0293 -1.2285 -0.2249
 4884TIP3   OH240762   4.840   5.332   0.142  0.0584 -0.1437 -0.2209
 4884TIP3    H140763   4.786   5.392   0.091  0.6201 -0.9482 -1.8364
 4884TIP3    H240764   4.907   5.387   0.182 -0.5964  0.5495 -0.0536
 4885TIP3   OH240765   1.544   7.776   1.482 -0.4134  0.0334  0.3497
 4885TIP3    H140766   1.595   7.718   1.425  0.1502  0.2260  0.6473
 4885TIP3    H240767   1.455   7.741   1.479 -0.4613  0.2058 -0.8830
 4886TIP3   OH240768   3.354   5.315   6.648  0.4725  0.4703 -0.2908
 4886TIP3    H140769   3.262   5.290   6.662  0.5638  1.3919  2.6586
 4886TIP3    H240770   3.400   5.282   6.725  2.2859  1.5833 -0.8338
 4887TIP3   OH240771   1.985   5.324   7.037 -0.5805 -0.0590  0.2548
 4887TIP3    H140772   1.930   5.260   7.080 -0.5266  0.4586  1.1066
 4887TIP3    H240773   1.936   5.406   7.042 -0.4670  0.0629 -0.4604
 4888TIP3   OH240774   3.218   5.177   0.553  0.2685  0.2373 -0.0844
 4888TIP3    H140775   3.273   5.109   0.592  0.2580  0.2024 -0.1311
 4888TIP3    H240776   3.280   5.242   0.521  0.3143 -0.1890 -0.8649
 4889TIP3   OH240777   2.779   6.997   6.675 -0.2851 -0.3961 -0.1070
 4889TIP3    H140778   2.857   6.979   6.623  0.4847 -0.2653  0.9624
 4889TIP3    H240779   2.730   7.061   6.624  0.0507 -0.8495 -1.0237
 4890TIP3   OH240780   6.141   4.075   5.802 -0.0482  0.5252  0.0222
 4890TIP3    H140781   6.140   4.170   5.794  2.4284  0.7820  1.7397
 4890TIP3    H240782   6.216   4.047   5.749 -0.3143 -0.4128  0.1160
 4891TIP3   OH240783   7.579   7.763   7.371 -0.0170  0.0800 -0.4715
 4891TIP3    H140784   7.513   7.826   7.342 -1.3836 -1.1552 -0.1578
 4891TIP3    H240785   7.601   7.791   7.460  0.0927  0.6430 -0.6696
 4892TIP3   OH240786   6.361   6.999   0.808 -0.5819  0.0167  0.0390
 4892TIP3    H140787   6.362   6.977   0.901 -1.4704 -1.7976 -0.3463
 4892TIP3    H240788   6.295   6.942   0.770 -0.0024  0.4828 -1.7761
 4893TIP3   OH240789   4.786   6.765   0.335  0.0239 -0.8009  0.0289
 4893TIP3    H140790   4.879   6.752   0.355 -0.1645 -0.6584  1.0489
 4893TIP3    H240791   4.749   6.677   0.332  0.7121 -1.0952 -3.2480
 4894TIP3   OH240792   2.449   6.477   1.308 -0.1830 -0.4727 -0.1027
 4894TIP3    H140793   2.394   6.422   1.363 -0.3282 -0.7284 -0.4990
 4894TIP3    H240794   2.503   6.527   1.370  1.1800 -2.2975  0.2869
 4895TIP3   OH240795   7.404   0.504   0.563 -0.0119 -0.1594 -0.6108
 4895TIP3    H140796   7.365   0.592   0.569  0.6131  0.2218 -1.7369
 4895TIP3    H240797   7.485   0.511   0.614  0.3380  0.1035 -1.1976
 4896TIP3   OH240798   3.673   0.370   6.080 -0.6068  0.1480  0.0321
 4896TIP3    H140799   3.622   0.289   6.081  2.1080 -1.7296  2.2948
 4896TIP3    H240800   3.681   0.395   6.172  2.0163  0.6443 -0.2503
 4897TIP3   OH240801   5.142   5.043   2.187  0.1136 -0.3518  0.3600
 4897TIP3    H140802   5.181   4.988   2.118 -0.6497 -1.0770  0.4955
 4897TIP3    H240803   5.175   5.131   2.168  0.6149 -0.6917 -0.4140
 4898TIP3   OH240804   0.853   2.698   1.556 -0.4810 -0.1100 -1.1537
 4898TIP3    H140805   0.855   2.778   1.503  3.2493 -0.2845 -1.5501
 4898TIP3    H240806   0.850   2.729   1.647  0.2405  0.4634 -1.3232
 4899TIP3   OH240807   7.970   7.832   1.404 -0.0398  0.2064  0.5516
 4899TIP3    H140808   7.992   7.924   1.389 -0.8067  0.6088  1.7657
 4899TIP3    H240809   8.055   7.789   1.415  0.2814  1.0009  1.2500
 4900TIP3   OH240810   7.412   0.001   7.047  0.3410 -0.2204  0.5063
 4900TIP3    H140811   7.467   0.076   7.027 -1.1184  1.0702  1.1932
 4900TIP3    H240812   7.407  -0.001   7.142 -0.7216 -0.3675  0.4577
 4901TIP3   OH240813   6.101   4.452   7.250  0.2828  0.3226  0.0980
 4901TIP3    H140814   6.034   4.453   7.318  0.3695  1.4257  0.1907
 4901TIP3    H240815   6.065   4.506   7.179  1.3457  1.5410  0.4498
 4902TIP3   OH240816   3.340   5.411   1.910  0.4768 -0.7315  0.2998
 4902TIP3    H140817   3.370   5.440   1.996  1.7227  0.9697 -0.6472
 4902TIP3    H240818   3.385   5.327   1.896  0.2459 -1.0364  1.2792
 4903TIP3   OH240819   5.940   3.199   1.051 -0.2466 -0.0429  0.3707
 4903TIP3    H140820   5.868   3.259   1.069 -3.5049 -3.2228 -0.7631
 4903TIP3    H240821   5.958   3.157   1.135  0.3289  0.7186  0.6442
 4904TIP3   OH240822   1.005   7.058   6.502  0.0736 -0.1294  0.4453
 4904TIP3    H140823   0.974   7.068   6.592 -0.7146 -1.3436  0.3341
 4904TIP3    H240824   0.941   7.001   6.461  0.3704  0.4899 -0.9336
 4905TIP3   OH240825   1.149   6.481   1.096 -0.9424 -0.5051  0.1499
 4905TIP3    H140826   1.186   6.555   1.048  0.8638 -1.9563 -0.8519
 4905TIP3    H240827   1.118   6.519   1.178 -1.8585  1.6579 -1.1057
 4906TIP3   OH240828   8.015   8.043   0.959  0.1507 -0.0682  0.1417
 4906TIP3    H140829   8.069   7.992   1.020  0.1584 -0.6078 -0.3165
 4906TIP3    H240830   7.928   8.004   0.966 -0.1822  0.7531  0.8223
 4907TIP3   OH240831   6.191   2.013   5.713  0.5348 -0.0781 -0.2387
 4907TIP3    H140832   6.234   2.026   5.798  1.1222  1.1851 -0.6930
 4907TIP3    H240833   6.098   2.027   5.730  0.7416  1.0000  0.0612
 4908TIP3   OH240834   3.272   4.893   0.051  0.1903  0.4874 -0.4897
 4908TIP3    H140835   3.310   4.810   0.078 -1.4370 -0.6092 -1.3660
 4908TIP3    H240836   3.346   4.948   0.027  1.3600 -0.3103  1.1568
 4909TIP3   OH240837   6.450   2.207   5.359 -0.0720  0.1624 -0.0918
 4909TIP3    H140838   6.379   2.220   5.422 -0.2961  0.6444 -0.4327
 4909TIP3    H240839   6.432   2.122   5.320  0.5181 -0.5128  1.0495
 4910TIP3   OH240840   1.130   5.451   6.816  0.8113  0.3544  0.4796
 4910TIP3    H140841   1.191   5.378   6.827 -1.5172 -1.3812  3.3175
 4910TIP3    H240842   1.093   5.439   6.729  1.8319 -0.7136  0.1675
 4911TIP3   OH240843   2.591   7.057   1.835  0.3773 -0.5188 -0.2538
 4911TIP3    H140844   2.684   7.058   1.859  0.3959 -0.6760 -0.3192
 4911TIP3    H240845   2.575   7.145   1.801  0.2168 -0.1163  0.8251
 4912TIP3   OH240846   1.971   3.131   1.235 -0.1948  0.4775 -0.2372
 4912TIP3    H140847   2.043   3.157   1.293  0.0861 -0.6876 -0.0564
 4912TIP3    H240848   1.956   3.208   1.180  1.8703  0.4034 -0.9692
 4913TIP3   OH240849   0.176   0.769   7.788  0.2305  0.0495 -0.3496
 4913TIP3    H140850   0.140   0.772   7.699 -1.7461  1.2618  0.4060
 4913TIP3    H240851   0.119   0.827   7.838  1.5316 -0.2971  1.6455
 4914TIP3   OH240852   7.766   7.605   1.375 -0.2749 -0.1449 -0.5884
 4914TIP3    H140853   7.826   7.679   1.385 -0.6102  0.0141  0.2426
 4914TIP3    H240854   7.735   7.613   1.285 -0.0732  0.5429 -0.6056
 4915TIP3   OH240855   6.653   4.949   2.454  0.3233 -0.2413  0.4375
 4915TIP3    H140856   6.581   5.013   2.453 -0.1567 -0.6830  2.2201
 4915TIP3    H240857   6.682   4.948   2.545  1.2195 -1.5991  0.1643
 4916TIP3   OH240858   5.910   3.316   2.515  0.6824 -0.1508  0.1258
 4916TIP3    H140859   5.955   3.400   2.526  0.8823 -0.2578  0.1396
 4916TIP3    H240860   5.880   3.293   2.603  2.2803 -1.0059  0.4845
 4917TIP3   OH240861   2.293   7.934   0.393  0.0039 -0.4311 -0.3252
 4917TIP3    H140862   2.366   7.876   0.372  0.2759 -0.2745  0.1547
 4917TIP3    H240863   2.229   7.878   0.436 -1.1210 -1.0330 -2.6179
 4918TIP3   OH240864   0.852   2.103   5.840  0.2521  0.5359  0.1435
 4918TIP3    H140865   0.908   2.027   5.858 -0.0405  0.6411  1.6855
 4918TIP3    H240866   0.901   2.177   5.878 -0.1037  0.9003 -0.1042
 4919TIP3   OH240867   1.413   1.819   5.764  0.2979 -0.1015  0.4289
 4919TIP3    H140868   1.402   1.808   5.669 -0.5559  1.7753  0.2632
 4919TIP3    H240869   1.469   1.896   5.773  0.0044  0.0082  1.4578
 4920TIP3   OH240870   6.217   4.761   1.165  0.2075 -0.1155 -0.3132
 4920TIP3    H140871   6.194   4.671   1.190  0.3299  0.1127  0.6584
 4920TIP3    H240872   6.277   4.791   1.233 -0.9857  1.2134  0.2084
 4921TIP3   OH240873   1.251   7.855   1.414 -0.5923 -0.1736  0.3960
 4921TIP3    H140874   1.165   7.897   1.413 -1.5208 -1.9542  1.2423
 4921TIP3    H240875   1.258   7.813   1.328  0.4808  1.8789 -0.5822
 4922TIP3   OH240876   1.594   3.976   7.442 -0.1897 -0.7128  0.2148
 4922TIP3    H140877   1.588   3.912   7.513 -0.3999  1.4345  2.2455
 4922TIP3    H240878   1.504   4.003   7.427 -0.1261 -1.0320 -0.8116
 4923TIP3   OH240879   5.638   7.322   1.322 -0.1555  0.4028  0.5183
 4923TIP3    H140880   5.713   7.364   1.280 -1.7553  0.3756 -2.6366
 4923TIP3    H240881   5.673   7.240   1.356  1.6545  1.3504  1.0979
 4924TIP3   OH240882   2.185   7.776   6.444 -0.7746  0.3016  0.2359
 4924TIP3    H140883   2.169   7.870   6.443  1.4722  0.7308 -0.0351
 4924TIP3    H240884   2.260   7.763   6.386  0.4856 -1.3349  2.0868
 4925TIP3   OH240885   7.524   2.034   7.075  0.6023 -0.2480 -0.4748
 4925TIP3    H140886   7.469   1.975   7.127 -0.6500  0.2379 -1.2083
 4925TIP3    H240887   7.551   2.102   7.136  1.5875 -1.2309  0.2394
 4926TIP3   OH240888   7.147   7.802   7.824 -0.0410  0.8061  0.1774
 4926TIP3    H140889   7.136   7.857   7.747 -1.2378 -0.1464 -0.3713
 4926TIP3    H240890   7.217   7.741   7.800 -0.4815  0.4469 -0.2025
 4927TIP3   OH240891   6.173   1.990   0.021 -1.0074 -0.2864  0.6512
 4927TIP3    H140892   6.225   1.941  -0.042 -0.1685  1.1087  0.2029
 4927TIP3    H240893   6.235   2.051   0.061 -2.2205  1.2485  0.2821
 4928TIP3   OH240894   1.722   3.305   7.820  0.1288  0.5987  0.1223
 4928TIP3    H140895   1.673   3.387   7.816 -0.1159  0.4219 -0.6536
 4928TIP3    H240896   1.671   3.249   7.878 -0.4411  0.5209 -0.4396
 4929TIP3   OH240897   2.217   6.650   1.194  0.2378 -0.2700 -0.4237
 4929TIP3    H140898   2.231   6.744   1.183  1.2683 -0.3669 -0.0694
 4929TIP3    H240899   2.283   6.623   1.257 -0.3947 -1.1484 -0.1140
 4930TIP3   OH240900   2.434   5.167   0.346  1.0656  0.8345 -0.2370
 4930TIP3    H140901   2.476   5.118   0.417 -1.7833 -1.4200  0.0654
 4930TIP3    H240902   2.479   5.137   0.267 -1.2440 -3.4617 -0.2106
 4931TIP3   OH240903   2.881   5.668   5.697  0.6630  0.1406  0.0631
 4931TIP3    H140904   2.912   5.740   5.752  0.2113  0.7279 -0.4453
 4931TIP3    H240905   2.954   5.651   5.636 -0.0023  1.5728 -1.1815
 4932TIP3   OH240906   4.085   2.220   6.652 -0.0164  0.2574  0.0637
 4932TIP3    H140907   4.096   2.131   6.620 -2.0022 -0.4284  1.1198
 4932TIP3    H240908   3.998   2.246   6.622 -0.3685  0.9946  1.6204
 4933TIP3   OH240909   7.831   6.934   2.179  0.1242  0.2390 -0.5881
 4933TIP3    H140910   7.834   6.880   2.101 -0.2249 -0.7152  0.0445
 4933TIP3    H240911   7.794   6.877   2.247 -0.2547  1.2611  0.0955
 4934TIP3   OH240912   2.164   0.733   6.652 -0.1590 -0.1709  0.3972
 4934TIP3    H140913   2.130   0.659   6.602  0.0778 -0.7485  1.0616
 4934TIP3    H240914   2.148   0.709   6.744 -0.2409  0.6859  0.6099
 4935TIP3   OH240915   7.343   5.507   0.325 -0.1958  0.7613 -0.4065
 4935TIP3    H140916   7.385   5.440   0.271  1.2164  1.4543 -0.2316
 4935TIP3    H240917   7.395   5.510   0.405 -1.8472  0.2320  0.7354
 4936TIP3   OH240918   3.570   1.623   7.539 -0.0060  0.1249 -0.0535
 4936TIP3    H140919   3.621   1.701   7.560 -1.3729  1.8103 -2.4088
 4936TIP3    H240920   3.488   1.634   7.588  0.2938 -0.4898  0.5898
 4937TIP3   OH240921   7.410   4.809   7.639 -0.6779 -0.4484 -0.9487
 4937TIP3    H140922   7.420   4.775   7.727 -2.3077 -0.0414 -0.5759
 4937TIP3    H240923   7.454   4.895   7.641 -2.2865  0.3895  0.0270
 4938TIP3   OH240924   6.206   1.694   7.423  1.0789 -0.3542 -0.5928
 4938TIP3    H140925   6.122   1.689   7.469  0.8078  1.3162 -0.8582
 4938TIP3    H240926   6.190   1.648   7.341  0.3117  0.2017 -0.7730
 4939TIP3   OH240927   3.697   1.901   0.296  1.1500 -0.4801  0.2581
 4939TIP3    H140928   3.636   1.966   0.261  1.5256  1.1906  2.4712
 4939TIP3    H240929   3.648   1.818   0.294  0.3711 -0.0389 -1.8821
 4940TIP3   OH240930   5.298   2.265   7.885 -0.5539 -0.2287  0.3643
 4940TIP3    H140931   5.308   2.348   7.932  0.4284  0.7344 -1.4453
 4940TIP3    H240932   5.352   2.203   7.934  0.6840  0.8155  0.3722
 4941TIP3   OH240933   3.092   2.093   6.711  0.2666 -0.6447  0.6624
 4941TIP3    H140934   3.055   2.176   6.682 -0.7671 -0.8330  1.3643
 4941TIP3    H240935   3.150   2.066   6.640 -1.0876 -0.4210 -0.5765
 4942TIP3   OH240936   4.807   2.376   0.079  0.1656  0.4617  0.4740
 4942TIP3    H140937   4.820   2.468   0.058 -1.4583  0.6970  0.3471
 4942TIP3    H240938   4.713   2.362   0.067 -0.0301 -0.6325  2.8015
 4943TIP3   OH240939   1.695   6.629   7.297 -0.0065 -0.5657 -0.5837
 4943TIP3    H140940   1.698   6.626   7.201  1.0260 -1.0304 -0.5456
 4943TIP3    H240941   1.698   6.538   7.325 -2.9682 -0.6153 -0.1295
 4944TIP3   OH240942   7.474   2.235   0.664 -0.1848 -0.0423  0.1654
 4944TIP3    H140943   7.456   2.325   0.692 -2.8348 -0.5019  0.2572
 4944TIP3    H240944   7.484   2.242   0.569 -0.2085  0.3813  0.1909
 4945TIP3   OH240945   5.543   1.255   1.000 -0.6962 -0.2924 -0.9997
 4945TIP3    H140946   5.540   1.349   0.985  2.5501 -0.2234 -2.1336
 4945TIP3    H240947   5.534   1.217   0.912 -0.9857 -0.9880 -0.6757
 4946TIP3   OH240948   6.399   3.391   1.335  0.0841 -0.3182 -0.3997
 4946TIP3    H140949   6.382   3.367   1.427 -0.6890 -0.3495 -0.5392
 4946TIP3    H240950   6.322   3.359   1.288 -0.2168  0.9951 -0.8410
 4947TIP3   OH240951   5.748   6.724   6.101  0.0244 -0.0289 -0.7630
 4947TIP3    H140952   5.813   6.659   6.076 -0.8000 -1.5465  0.8044
 4947TIP3    H240953   5.669   6.699   6.055  0.6114  2.2214 -3.2170
 4948TIP3   OH240954   4.725   5.182   1.673 -0.2317 -0.3141  0.0642
 4948TIP3    H140955   4.635   5.181   1.640 -0.5702 -0.6648  0.9920
 4948TIP3    H240956   4.772   5.120   1.616 -0.4112  0.3444 -0.8299
 4949TIP3   OH240957   3.428   7.389   0.964 -0.0086 -0.3882  0.7431
 4949TIP3    H140958   3.498   7.440   0.923 -0.8502  1.2390  1.2253
 4949TIP3    H240959   3.387   7.342   0.892 -0.0984  0.7383  0.0254
 4950TIP3   OH240960   1.718   7.817   0.720  0.2231  0.3764 -0.1161
 4950TIP3    H140961   1.765   7.896   0.694 -0.1107  1.0365  1.2121
 4950TIP3    H240962   1.709   7.766   0.639  1.6196  1.0652 -0.7185
 4951TIP3   OH240963   5.621   2.957   0.929 -0.2966  0.3748  0.2484
 4951TIP3    H140964   5.526   2.960   0.913 -0.3414 -0.6772  0.2588
 4951TIP3    H240965   5.633   3.010   1.007 -1.3255 -1.9630  2.1190
 4952TIP3   OH240966   3.956   2.127   1.213 -0.2549  0.0862  0.3736
 4952TIP3    H140967   4.002   2.124   1.297  1.0653  0.9312 -0.2942
 4952TIP3    H240968   4.011   2.076   1.154 -0.8077  0.0981 -0.1557
 4953TIP3   OH240969   6.028   1.699   2.181 -0.0786 -0.6791  0.1053
 4953TIP3    H140970   6.063   1.639   2.115  0.4271 -0.2960  0.0205
 4953TIP3    H240971   6.105   1.727   2.231 -0.4915 -1.1977  1.0588
 4954TIP3   OH240972   3.246   4.300   1.924 -0.0369 -0.1863 -0.4585
 4954TIP3    H140973   3.340   4.303   1.904  0.3223 -0.0803  1.1131
 4954TIP3    H240974   3.203   4.329   1.843  1.3861  2.4861 -0.3433
 4955TIP3   OH240975   4.903   1.407   6.331  0.0510 -0.2620 -0.3700
 4955TIP3    H140976   4.950   1.413   6.415 -0.0695  1.9920 -0.3977
 4955TIP3    H240977   4.909   1.495   6.294 -1.0512 -0.8721 -2.1202
 4956TIP3   OH240978   5.632   2.662   6.692 -0.4089  0.3421  0.0283
 4956TIP3    H140979   5.570   2.654   6.620 -0.2074  1.2076 -0.2634
 4956TIP3    H240980   5.640   2.757   6.706  0.6443  0.2388  0.2238
 4957TIP3   OH240981   2.755   2.757   7.397  0.4805 -0.3226  0.1459
 4957TIP3    H140982   2.737   2.726   7.309 -0.4412 -0.9010  0.5189
 4957TIP3    H240983   2.848   2.741   7.411  0.8843  0.8021 -1.1075
 4958TIP3   OH240984   5.358   1.478   0.627  0.3486  0.2355  0.1619
 4958TIP3    H140985   5.348   1.491   0.533 -0.5935 -0.3331  0.1658
 4958TIP3    H240986   5.450   1.455   0.639  0.9721  2.3365 -0.3576
 4959TIP3   OH240987   7.488   3.831   0.356  0.0854 -0.4732 -0.1139
 4959TIP3    H140988   7.496   3.899   0.289  0.9477 -0.6108 -0.1655
 4959TIP3    H240989   7.396   3.804   0.351 -0.2859  0.7024 -0.0599
 4960TIP3   OH240990   0.174   4.727   1.849 -0.4249  0.1745 -0.3411
 4960TIP3    H140991   0.249   4.755   1.901 -0.9689 -0.4332  0.8365
 4960TIP3    H240992   0.122   4.674   1.910 -0.0411 -2.3947 -2.0590
 4961TIP3   OH240993   0.097   0.130   0.928  0.0887  0.6280  0.7411
 4961TIP3    H140994   0.133   0.078   0.856  1.8508 -0.2359  2.1727
 4961TIP3    H240995   0.006   0.101   0.935 -0.1720  0.8439 -1.1921
 4962TIP3   OH240996   6.340   0.021   0.289 -0.0993 -0.3270 -0.1558
 4962TIP3    H140997   6.408   0.081   0.259  0.5581  0.1425  2.1039
 4962TIP3    H240998   6.347  -0.054   0.229  1.0120  0.5881 -1.2275
 4963TIP3   OH240999   7.403   2.863   2.219 -0.3405  0.0018  0.7862
 4963TIP3    H141000   7.332   2.926   2.221  0.4447  0.9260  0.2215
 4963TIP3    H241001   7.360   2.778   2.212 -1.3657  0.6364 -1.4144
 4964TIP3   OH241002   2.916   6.680   5.930 -0.0717 -0.2277  0.2279
 4964TIP3    H141003   2.977   6.668   5.857 -0.0807 -0.4868  0.2608
 4964TIP3    H241004   2.919   6.597   5.977 -1.0045 -0.5030 -0.1805
 4965TIP3   OH241005   1.999   0.830   7.194  0.0176 -0.2187  0.2800
 4965TIP3    H141006   1.983   0.741   7.227  2.1860 -0.4503  0.9195
 4965TIP3    H241007   1.945   0.837   7.115 -1.1477 -1.6394  0.9120
 4966TIP3   OH241008   5.754   0.311   1.294  0.4524  0.1532  0.4262
 4966TIP3    H141009   5.700   0.243   1.334  1.6700  0.0004  1.8755
 4966TIP3    H241010   5.788   0.362   1.368  1.1010  1.1634 -0.5278
 4967TIP3   OH241011   4.711   4.042   7.658  0.5980 -0.0790 -0.1456
 4967TIP3    H141012   4.620   4.018   7.640  0.0365  0.4120  1.7334
 4967TIP3    H241013   4.726   4.121   7.606 -0.2114  0.0943 -0.1288
 4968TIP3   OH241014   2.789   6.813   0.271  0.1265  0.1273 -0.1762
 4968TIP3    H141015   2.755   6.776   0.190  0.4597 -2.0107  0.6007
 4968TIP3    H241016   2.713   6.816   0.329  0.3820 -0.7200  0.2169
 4969TIP3   OH241017   6.225   7.252   1.127  0.6048 -0.2019 -0.6334
 4969TIP3    H141018   6.319   7.266   1.114  0.4702 -0.3948 -1.9205
 4969TIP3    H241019   6.198   7.200   1.051 -0.6130  0.1569 -0.4615
 4970TIP3   OH241020   0.480   0.032   5.915 -0.1049 -0.5275  0.0622
 4970TIP3    H141021   0.395   0.034   5.872 -0.3024 -0.8872  0.4273
 4970TIP3    H241022   0.460   0.038   6.009  0.2153 -1.5708  0.2096
 4971TIP3   OH241023   7.202   6.010   2.199 -0.1610 -0.3871 -0.2858
 4971TIP3    H141024   7.155   6.085   2.163 -0.8311 -0.7291 -0.1422
 4971TIP3    H241025   7.237   5.965   2.122  1.5559  0.8866 -0.3095
 4972TIP3   OH241026   4.472   4.066   1.939 -0.9460  0.1189 -0.2801
 4972TIP3    H141027   4.395   4.117   1.962 -0.8782  0.3838 -0.6301
 4972TIP3    H241028   4.476   3.996   2.004 -2.5277 -0.9875 -1.3045
 4973TIP3   OH241029   5.580   4.393   5.997 -0.2914 -0.0987  0.0612
 4973TIP3    H141030   5.583   4.312   6.048  0.3647 -0.2106 -0.1385
 4973TIP3    H241031   5.659   4.390   5.943 -0.2613  0.6730  0.0477
 4974TIP3   OH241032   5.298   3.348   0.007  0.1942 -0.3584  0.2172
 4974TIP3    H141033   5.262   3.377   0.091  0.2386 -0.0074  0.1146
 4974TIP3    H241034   5.319   3.429  -0.040 -0.6272 -0.5332 -0.4808
 4975TIP3   OH241035   7.755   3.595   1.180  0.4546 -0.3155 -0.2398
 4975TIP3    H141036   7.663   3.620   1.187  0.3434 -0.9633  0.7674
 4975TIP3    H241037   7.754   3.501   1.164  0.9474 -0.6858  1.6981
 4976TIP3   OH241038   4.854   1.054   1.657  0.1377 -0.0938 -0.2014
 4976TIP3    H141039   4.919   1.122   1.676  0.0042  0.0494 -0.2576
 4976TIP3    H241040   4.878   0.982   1.715 -1.2603  0.9549  1.7777
 4977TIP3   OH241041   3.547   0.859   7.567  0.2022  0.4490  0.0630
 4977TIP3    H141042   3.498   0.886   7.645 -1.3352 -0.0060 -0.6957
 4977TIP3    H241043   3.561   0.941   7.519 -3.0052  0.3018 -1.4241
 4978TIP3   OH241044   3.608   1.227   1.216 -0.0596  0.6430  0.2218
 4978TIP3    H141045   3.671   1.287   1.176  0.3534  0.6290  0.8340
 4978TIP3    H241046   3.657   1.184   1.286 -0.3529 -0.4328 -0.2211
 4979TIP3   OH241047   7.669   5.841   7.232  0.1661  0.2345 -0.0403
 4979TIP3    H141048   7.581   5.878   7.243  0.4837  1.1362 -0.4153
 4979TIP3    H241049   7.662   5.753   7.269 -0.5239  0.7872  1.2347
 4980TIP3   OH241050   4.466   4.887   6.531 -0.2847 -0.7763  0.0429
 4980TIP3    H141051   4.528   4.930   6.473  0.2271 -2.2832 -0.5825
 4980TIP3    H241052   4.504   4.895   6.618 -0.1322 -0.1235 -0.0765
 4981TIP3   OH241053   7.829   1.278   6.402 -0.0263 -0.4199  0.2688
 4981TIP3    H141054   7.848   1.330   6.324 -1.0569 -0.4534 -0.0163
 4981TIP3    H241055   7.913   1.271   6.447  0.2592  0.9793  0.0044
 4982TIP3   OH241056   4.065   0.151   5.366 -0.0348 -1.4512  0.3798
 4982TIP3    H141057   3.991   0.141   5.307 -0.6956  1.8034  0.4800
 4982TIP3    H241058   4.131   0.199   5.315 -0.4748  1.0873  1.9919
 4983TIP3   OH241059   0.100   2.876   7.350  0.6475  0.0531 -0.0516
 4983TIP3    H141060   0.085   2.868   7.445 -0.8745  1.9689 -0.0585
 4983TIP3    H241061   0.144   2.795   7.326 -0.2913 -1.1672  2.0367
 4984TIP3   OH241062   5.265   0.789   6.255 -0.0947 -0.3114 -0.4654
 4984TIP3    H141063   5.290   0.878   6.282  0.2418 -0.7865  0.8571
 4984TIP3    H241064   5.263   0.793   6.159  1.5808  0.6842 -0.4930
 4985TIP3   OH241065   2.239   0.742   7.497  0.8994 -0.2458  0.2289
 4985TIP3    H141066   2.195   0.677   7.443 -0.8706  1.4374 -0.4905
 4985TIP3    H241067   2.275   0.805   7.435  1.3418  0.1976  0.9126
 4986TIP3   OH241068   4.902   8.094   0.092  0.0147  0.0344 -0.2891
 4986TIP3    H141069   4.891   8.182   0.057  0.1894  0.1788  0.0095
 4986TIP3    H241070   4.940   8.108   0.179  2.9058 -0.4506 -1.3939
 4987TIP3   OH241071   5.109   2.212   2.162 -0.1231  0.2011 -0.3371
 4987TIP3    H141072   5.118   2.123   2.126  0.3759  0.7691 -1.6623
 4987TIP3    H241073   5.021   2.239   2.137 -0.3709 -0.0026  0.2916
 4988TIP3   OH241074   4.194   0.568   6.132  0.1031  0.3720 -0.5276
 4988TIP3    H141075   4.178   0.584   6.039 -2.2878 -1.5355 -0.5354
 4988TIP3    H241076   4.235   0.649   6.163  0.2854  1.3418 -3.0545
 4989TIP3   OH241077   7.765   3.125   1.823 -0.6036 -0.1529 -0.0197
 4989TIP3    H141078   7.852   3.092   1.846 -0.4189  0.6806  0.5294
 4989TIP3    H241079   7.704   3.065   1.866 -0.3084 -1.0069 -0.7837
 4990TIP3   OH241080   4.240   4.498   1.679 -0.2627 -0.0858  1.0098
 4990TIP3    H141081   4.271   4.449   1.755  1.2218 -0.0798  0.4446
 4990TIP3    H241082   4.306   4.566   1.666 -0.6050  0.0421 -0.1542
 4991TIP3   OH241083   5.977   6.962   0.404 -0.4394  0.4186 -0.0847
 4991TIP3    H141084   5.972   6.914   0.487 -1.0546  0.4035 -0.1264
 4991TIP3    H241085   5.891   7.002   0.394 -0.2138  0.8162 -0.4844
 4992TIP3   OH241086   4.041   2.511   0.641  0.2570  0.0036 -0.8620
 4992TIP3    H141087   4.136   2.509   0.654  0.3356 -2.1716 -1.4399
 4992TIP3    H241088   4.029   2.505   0.547 -0.4593  0.1665 -0.7853
 4993TIP3   OH241089   0.836   0.690   0.303 -0.6763  0.1510  0.1666
 4993TIP3    H141090   0.835   0.723   0.213  1.6018  0.5122  0.2121
 4993TIP3    H241091   0.754   0.721   0.340 -2.1958 -0.8973 -2.0545
 4994TIP3   OH241092   2.088   7.992   7.409 -0.2360  0.5023 -0.2068
 4994TIP3    H141093   2.028   8.063   7.385  1.1420  1.2495 -1.6410
 4994TIP3    H241094   2.045   7.913   7.376 -2.1177  0.4991  2.0179
 4995TIP3   OH241095   0.103   3.523   6.360  0.1923 -0.0396 -0.1973
 4995TIP3    H141096   0.051   3.450   6.327 -2.3129  0.6363  1.8914
 4995TIP3    H241097   0.054   3.601   6.331  0.8394  0.6855  0.6091
 4996TIP3   OH241098   4.186   5.932   6.421 -0.0509 -0.6715 -0.1196
 4996TIP3    H141099   4.164   5.899   6.333 -0.3691  1.1704 -0.7682
 4996TIP3    H241100   4.281   5.946   6.418  0.1490 -1.8342  0.2883
 4997TIP3   OH241101   5.434   4.617   6.167  0.4443 -0.1216 -0.3216
 4997TIP3    H141102   5.380   4.604   6.089 -1.7133 -0.4983  1.1323
 4997TIP3    H241103   5.403   4.699   6.204  1.1148 -0.1745  0.3876
 4998TIP3   OH241104   1.953   3.660   6.617 -0.7616 -0.2034  0.6496
 4998TIP3    H141105   1.867   3.667   6.575 -0.3976  0.4347 -0.0156
 4998TIP3    H241106   2.010   3.624   6.549 -0.1554  0.8751  0.5557
 4999TIP3   OH241107   4.362   5.129   6.481 -0.1112  0.1814  0.1373
 4999TIP3    H141108   4.439   5.163   6.436  0.2529  1.1335  1.4367
 4999TIP3    H241109   4.396   5.058   6.535 -0.3723 -0.2439 -0.2470
 5000TIP3   OH241110   1.532   3.249   0.809  0.0391  0.5074 -0.2282
 5000TIP3    H141111   1.589   3.184   0.849  1.1783  1.7477  0.2145
 5000TIP3    H241112   1.452   3.246   0.862 -0.5103 -1.5086 -1.0898
 5001TIP3   OH241113   0.637   5.027   0.632 -0.5383 -0.4543  0.3964
 5001TIP3    H141114   0.640   4.972   0.554  2.8612 -0.3663  0.2871
 5001TIP3    H241115   0.680   5.109   0.606 -0.6659  0.1476  1.9622
 5002TIP3   OH241116   3.485   7.494   1.365  0.1670  0.5528  0.3112
 5002TIP3    H141117   3.555   7.477   1.302  0.5910  0.2537  0.8489
 5002TIP3    H241118   3.422   7.423   1.352  0.4486  0.2679  0.4916
 5003TIP3   OH241119   5.629   4.492   6.335  0.0908 -0.1251  0.3609
 5003TIP3    H141120   5.568   4.510   6.263 -0.2764  2.0291  1.1366
 5003TIP3    H241121   5.693   4.431   6.298 -0.4729  0.3962 -1.5816
 5004TIP3   OH241122   5.768   7.723   1.829 -0.3107  0.1274 -0.1601
 5004TIP3    H141123   5.700   7.708   1.763 -0.1443  1.0505 -0.5622
 5004TIP3    H241124   5.775   7.818   1.835  0.1973  0.0507  0.6618
 5005TIP3   OH241125   6.446   6.212   6.983 -0.1036  0.8241  0.3296
 5005TIP3    H141126   6.504   6.230   7.058 -0.0652  1.2152  0.2094
 5005TIP3    H241127   6.430   6.298   6.944 -0.4649  0.6728  0.1374
 5006TIP3   OH241128   7.622   1.400   6.857  0.6196  0.1402 -1.1435
 5006TIP3    H141129   7.629   1.311   6.892  0.0823  0.7409  0.6423
 5006TIP3    H241130   7.702   1.413   6.807  0.9379 -1.1658 -1.0091
 5007TIP3   OH241131   3.865   2.328   7.204  0.0840 -0.1248  0.6834
 5007TIP3    H141132   3.869   2.287   7.290 -1.8618 -0.9158  0.4457
 5007TIP3    H241133   3.896   2.261   7.144  1.0259  0.2821  0.6828
 5008TIP3   OH241134   6.378   2.271   6.883  0.2887 -0.3003 -0.1180
 5008TIP3    H141135   6.315   2.320   6.830 -0.8093 -1.5581 -0.0472
 5008TIP3    H241136   6.444   2.241   6.820 -1.4178 -2.4551 -1.0298
 5009TIP3   OH241137   7.571   1.240   7.198  0.1283  0.4985 -0.8583
 5009TIP3    H141138   7.600   1.243   7.289  0.0130  1.5034 -0.8420
 5009TIP3    H241139   7.545   1.149   7.183  1.6216 -0.0385 -0.3498
 5010TIP3   OH241140   0.844   4.985   7.772  0.0423  0.0048  0.7274
 5010TIP3    H141141   0.893   4.916   7.817 -1.3024 -0.2341  1.8836
 5010TIP3    H241142   0.900   5.062   7.781 -0.7892  0.3741  4.2507
 5011TIP3   OH241143   5.521   0.317   6.327  0.1432 -0.0946  0.2166
 5011TIP3    H141144   5.544   0.369   6.250  1.2938 -0.7094  0.1238
 5011TIP3    H241145   5.503   0.229   6.293 -0.0445 -0.1988  0.5724
 5012TIP3   OH241146   0.108   0.214   1.735 -0.2786  0.2682  0.3176
 5012TIP3    H141147   0.018   0.216   1.703 -0.8959 -1.1069  1.8148
 5012TIP3    H241148   0.147   0.138   1.691 -0.2682  0.0697  0.6643
 5013TIP3   OH241149   6.239   4.307   6.379 -0.1613 -0.3223 -0.0123
 5013TIP3    H141150   6.287   4.303   6.462  0.6629  0.7441 -0.4081
 5013TIP3    H241151   6.306   4.325   6.313 -1.0141  0.6078 -0.6685
 5014TIP3   OH241152   2.478   6.268   7.592 -0.3008  0.3891 -0.5379
 5014TIP3    H141153   2.422   6.342   7.569  0.0018  0.1266 -2.2802
 5014TIP3    H241154   2.524   6.247   7.511  1.5866 -0.0395  0.5870
 5015TIP3   OH241155   4.415   0.310   7.840 -0.2557  0.2028 -0.6690
 5015TIP3    H141156   4.347   0.367   7.874 -1.2340 -0.3788 -1.5871
 5015TIP3    H241157   4.369   0.229   7.815  0.7094 -0.1067 -1.5297
 5016TIP3   OH241158   3.272   0.282   1.432  0.3966  0.0422 -0.3278
 5016TIP3    H141159   3.350   0.335   1.447  1.6431 -2.0982  1.2491
 5016TIP3    H241160   3.304   0.193   1.422 -1.8204 -0.8473 -0.1315
 5017TIP3   OH241161   1.859   0.960   0.073 -0.6030 -0.2287 -0.2938
 5017TIP3    H141162   1.929   0.912   0.118  0.7828  1.7181 -0.2859
 5017TIP3    H241163   1.779   0.923   0.110  0.4216  1.0673  3.7007
 5018TIP3   OH241164   7.290   1.133   6.134  0.2607 -0.4272  0.0682
 5018TIP3    H141165   7.231   1.188   6.186  0.5354  0.0849 -0.1567
 5018TIP3    H241166   7.240   1.115   6.053  0.4523  0.0959 -0.1686
 5019TIP3   OH241167   2.328   5.403   5.982  0.0485 -0.2851 -0.1787
 5019TIP3    H141168   2.237   5.420   5.959 -0.1517 -1.2561 -0.1245
 5019TIP3    H241169   2.340   5.445   6.067 -0.2978 -0.0149 -0.2613
 5020TIP3   OH241170   5.546   5.945   7.918 -0.3485  0.1293  0.1973
 5020TIP3    H141171   5.536   5.852   7.898 -1.4369  0.3032 -0.1522
 5020TIP3    H241172   5.605   5.978   7.850 -2.6653  0.3564 -1.8557
 5021TIP3   OH241173   6.289   4.420   1.084  0.0380 -1.1101 -0.0291
 5021TIP3    H141174   6.310   4.327   1.076 -1.0694 -1.5509  1.6569
 5021TIP3    H241175   6.218   4.434   1.021 -0.5962 -1.7095  0.5330
 5022TIP3   OH241176   1.147   4.397   0.619  0.0317 -0.2153 -0.1806
 5022TIP3    H141177   1.238   4.378   0.643 -0.5298 -1.0681  1.4088
 5022TIP3    H241178   1.128   4.480   0.664 -0.0377 -0.1495 -0.3318
 5023TIP3   OH241179   2.431   3.202   1.073 -0.1816  0.4117  0.0740
 5023TIP3    H141180   2.376   3.135   1.033 -0.0328  0.4826 -0.2490
 5023TIP3    H241181   2.519   3.165   1.074 -0.0561  0.6923 -0.3199
 5024TIP3   OH241182   3.556   4.211   0.082 -0.5679 -0.3480 -0.1514
 5024TIP3    H141183   3.626   4.196   0.019 -1.3775 -1.0097 -0.9252
 5024TIP3    H241184   3.601   4.235   0.163  0.4773  1.4138 -1.1921
 5025TIP3   OH241185   1.134   6.359   7.361  0.1085  1.0146 -0.6045
 5025TIP3    H141186   1.223   6.386   7.384 -0.5318  2.4752  0.3640
 5025TIP3    H241187   1.078   6.411   7.419 -1.3877  0.2467 -1.3007
 5026TIP3   OH241188   0.575   2.776   7.728  0.7047 -0.0294 -0.1953
 5026TIP3    H141189   0.620   2.719   7.666  0.1408 -1.1503  0.3852
 5026TIP3    H241190   0.483   2.771   7.702  0.3347 -1.1650  1.1730
 5027TIP3   OH241191   2.879   5.414   1.277  0.5071  0.5254  0.6610
 5027TIP3    H141192   2.897   5.363   1.199  1.1715  1.3783  0.2396
 5027TIP3    H241193   2.796   5.380   1.310  0.3286  0.0167 -0.2927
 5028TIP3   OH241194   6.729   7.876   0.562 -0.2734  0.1560  0.2494
 5028TIP3    H141195   6.649   7.828   0.581 -0.2604 -0.3494 -0.8927
 5028TIP3    H241196   6.704   7.940   0.495  0.5035 -0.8329 -1.0343
 5029TIP3   OH241197   3.236   7.863   7.580  0.3997 -0.6614 -0.1186
 5029TIP3    H141198   3.301   7.925   7.615 -0.3422  0.6401 -0.9424
 5029TIP3    H241199   3.155   7.914   7.576 -0.2225 -1.6844 -0.8756
 5030TIP3   OH241200   5.939   2.502   0.604  0.1670  0.1768 -0.0066
 5030TIP3    H141201   5.886   2.430   0.570  0.6422 -1.2112  1.9884
 5030TIP3    H241202   6.029   2.469   0.600  0.3249  0.3465  1.5558
 5031TIP3   OH241203   0.471   1.561   6.654 -0.2827  0.2742 -0.2036
 5031TIP3    H141204   0.418   1.488   6.623 -1.9143  2.0222 -1.7354
 5031TIP3    H241205   0.433   1.584   6.739 -0.9818  0.5389 -0.5860
 5032TIP3   OH241206   6.083   5.366   2.693  0.2602 -0.4141 -0.4692
 5032TIP3    H141207   6.173   5.352   2.723 -0.5259 -2.8318  1.0117
 5032TIP3    H241208   6.058   5.450   2.731  0.9820 -1.0655  1.6044
 5033TIP3   OH241209   8.016   4.215   6.267 -0.0426 -0.4821  1.2825
 5033TIP3    H141210   8.012   4.209   6.172 -0.9586  0.8475  1.2016
 5033TIP3    H241211   7.964   4.293   6.288 -1.4365 -1.7761  3.0054
 5034TIP3   OH241212   0.076   6.873   0.336 -0.4465 -0.5254  0.1932
 5034TIP3    H141213   0.048   6.955   0.377 -1.0244 -1.0098  0.7922
 5034TIP3    H241214   0.097   6.816   0.410 -0.0018 -0.9059 -0.2220
 5035TIP3   OH241215   1.608   2.456   7.528 -0.4887 -0.4146 -0.6440
 5035TIP3    H141216   1.634   2.375   7.485 -3.6323 -1.4242 -0.9081
 5035TIP3    H241217   1.674   2.520   7.501  2.2893 -2.8731 -0.1727
 5036TIP3   OH241218   1.755   5.572   7.543 -0.6310 -0.3882  0.9147
 5036TIP3    H141219   1.754   5.668   7.548 -2.4157 -0.1892 -1.4521
 5036TIP3    H241220   1.847   5.548   7.556  0.9698  2.1048 -3.5609
 5037TIP3   OH241221   5.023   3.879   0.170  0.1144  0.0611 -0.2928
 5037TIP3    H141222   4.965   3.847   0.239 -0.9307  0.4774 -0.9551
 5037TIP3    H241223   4.965   3.901   0.097  0.9794  1.6799 -0.5434
 5038TIP3   OH241224   4.696   6.902   6.808  0.0638 -0.2394 -0.0817
 5038TIP3    H141225   4.684   6.910   6.713 -0.0333 -0.2111 -0.0670
 5038TIP3    H241226   4.761   6.833   6.818 -0.4301 -0.7152 -0.1418
 5039TIP3   OH241227   2.242   1.698   0.597  0.4235 -0.2640 -0.3554
 5039TIP3    H141228   2.224   1.782   0.555  0.7340 -0.6027 -1.1754
 5039TIP3    H241229   2.159   1.651   0.595  0.5247 -0.4198 -0.9129
 5040TIP3   OH241230   3.846   7.882   7.008  0.4137  0.2585  0.1343
 5040TIP3    H141231   3.761   7.924   7.021 -0.6555 -2.0597  1.1762
 5040TIP3    H241232   3.909   7.947   7.039 -1.2543  0.5861  3.3385
 5041TIP3   OH241233   4.699   7.976   6.741 -0.2641  0.1028  0.4407
 5041TIP3    H141234   4.784   7.940   6.769 -0.8319 -0.1611  1.9174
 5041TIP3    H241235   4.703   8.068   6.767 -0.2800  0.1873  0.1449
 5042TIP3   OH241236   0.169   0.233   7.660  0.2439 -0.4867 -0.0359
 5042TIP3    H141237   0.255   0.204   7.690  0.7709  1.4008  0.3984
 5042TIP3    H241238   0.182   0.324   7.633 -1.8601  0.2252  1.1443
 5043TIP3   OH241239   0.823   4.666   6.178  0.2120 -0.5952  0.7007
 5043TIP3    H141240   0.839   4.760   6.167  0.8878 -0.8133 -0.3208
 5043TIP3    H241241   0.745   4.649   6.124 -0.2463 -0.5190  1.3374
 5044TIP3   OH241242   7.076   5.822   0.499  0.1509 -0.0302  0.6425
 5044TIP3    H141243   7.080   5.726   0.498  1.1976 -0.0438  2.1878
 5044TIP3    H241244   7.167   5.850   0.501 -0.1491  0.9880  0.6485
 5045TIP3   OH241245   6.616   7.476   7.086 -0.0783  0.6754 -0.7114
 5045TIP3    H141246   6.583   7.553   7.040  0.0893  0.8158 -0.6009
 5045TIP3    H241247   6.696   7.507   7.129  0.1017  0.3836 -0.8373
 5046TIP3   OH241248   3.545   5.541   0.010 -0.4463 -0.2341 -0.4166
 5046TIP3    H141249   3.453   5.519  -0.007 -0.3939 -0.3981 -0.4900
 5046TIP3    H241250   3.544   5.635   0.027 -1.3308 -0.8724  4.4737
 5047TIP3   OH241251   4.325   0.942   0.156  0.0543 -0.0736  0.1902
 5047TIP3    H141252   4.366   0.919   0.073 -0.8686 -0.0169 -0.3042
 5047TIP3    H241253   4.242   0.983   0.130 -0.5848 -0.7236  1.1434
 5048TIP3   OH241254   7.758   7.692   7.871 -0.0954  0.4632  0.7286
 5048TIP3    H141255   7.848   7.686   7.837 -0.6795  1.9156 -1.2645
 5048TIP3    H241256   7.752   7.620   7.935  1.4955 -1.7267 -1.3841
 5049TIP3   OH241257   5.000   1.577   7.227  0.0442  0.3221  0.1176
 5049TIP3    H141258   4.984   1.659   7.179 -1.5349 -0.6103 -1.0495
 5049TIP3    H241259   4.933   1.576   7.295  1.0413  0.6958  1.1369
 5050TIP3   OH241260   0.402   7.136   5.554 -0.5295  0.4552  0.4123
 5050TIP3    H141261   0.408   7.219   5.602 -0.0281  1.3995 -1.1796
 5050TIP3    H241262   0.325   7.146   5.499 -0.4320 -0.1119  0.1731
 5051TIP3   OH241263   4.554   3.976   1.132 -0.0458  0.4747 -0.2354
 5051TIP3    H141264   4.485   3.922   1.172 -0.7703 -0.1791 -2.2550
 5051TIP3    H241265   4.636   3.933   1.157 -0.4604  0.1241  0.5629
 5052TIP3   OH241266   1.789   7.917   7.521  0.0157 -0.3581  0.0448
 5052TIP3    H141267   1.760   7.960   7.440  1.0355  0.4554  0.1026
 5052TIP3    H241268   1.820   7.988   7.577 -0.8642 -0.8867  1.2560
 5053TIP3   OH241269   0.361   3.932   7.833  0.3040  0.2868  0.0344
 5053TIP3    H141270   0.272   3.933   7.799  0.3855  1.2940 -0.1831
 5053TIP3    H241271   0.405   3.863   7.783 -1.1327 -2.5692  2.3366
 5054TIP3   OH241272   1.589   1.046   6.523  0.0999 -0.2606  0.1829
 5054TIP3    H141273   1.669   1.008   6.485 -0.3091  0.0046 -0.9884
 5054TIP3    H241274   1.523   0.977   6.512  0.2433 -0.6519  1.5512
 5055TIP3   OH241275   3.949   2.278   0.748 -0.1453  0.4923  0.6949
 5055TIP3    H141276   4.033   2.236   0.729 -0.2474  0.2784  0.7166
 5055TIP3    H241277   3.969   2.372   0.745 -0.5192  0.5899 -2.3657
 5056TIP3   OH241278   0.856   6.127   0.143  0.5787  0.0383  0.5691
 5056TIP3    H141279   0.879   6.193   0.077 -0.8328  0.4345  0.4320
 5056TIP3    H241280   0.940   6.093   0.174  1.3517  1.9751  0.7094
 5057TIP3   OH241281   3.543   2.873   0.668 -0.0996 -0.5198 -0.3163
 5057TIP3    H141282   3.577   2.949   0.619 -2.2395  0.3633 -0.5593
 5057TIP3    H241283   3.481   2.832   0.608 -2.5528  0.3860  1.4414
 5058TIP3   OH241284   1.937   7.670   6.990  0.6528 -0.3573  0.0765
 5058TIP3    H141285   1.907   7.749   7.034  0.8169 -0.8110  1.0400
 5058TIP3    H241286   1.864   7.608   6.999  0.7117 -0.4736 -0.2380
 5059TIP3   OH241287   4.559   4.402   6.100  0.3070  0.4866 -0.2736
 5059TIP3    H141288   4.578   4.421   6.192  2.3532 -0.4931 -0.4235
 5059TIP3    H241289   4.484   4.458   6.078 -1.9110 -1.0319  2.6494
 5060TIP3   OH241290   0.568   2.070   6.796  0.1977 -0.0784 -0.2186
 5060TIP3    H141291   0.518   2.019   6.732  1.0969 -2.4462  0.8322
 5060TIP3    H241292   0.526   2.156   6.797 -1.1138 -0.6162 -2.4564
 5061TIP3   OH241293   4.741   2.905   7.454  0.0706 -0.4023 -0.1538
 5061TIP3    H141294   4.652   2.885   7.483 -1.0236  1.2533 -2.1007
 5061TIP3    H241295   4.761   2.835   7.391 -0.6418  0.2468 -1.1288
 5062TIP3   OH241296   5.767   2.677   0.219  0.5183  0.4708  0.2736
 5062TIP3    H141297   5.793   2.586   0.204 -1.4730 -0.3362  1.3030
 5062TIP3    H241298   5.843   2.728   0.193  1.2976 -1.4008 -1.4383
 5063TIP3   OH241299   1.341   4.345   1.320 -0.0873  0.2470 -0.1083
 5063TIP3    H141300   1.279   4.275   1.299 -1.5474  1.3337  0.3809
 5063TIP3    H241301   1.321   4.369   1.410  1.4100  0.3028  0.2303
 5064TIP3   OH241302   7.163   6.102   6.888 -0.2537 -0.3244 -0.3219
 5064TIP3    H141303   7.195   6.026   6.838 -0.1613  0.0475 -0.8344
 5064TIP3    H241304   7.118   6.156   6.824 -0.1743  0.1380  0.0059
 5065TIP3   OH241305   0.296   3.052   2.454  0.0647  0.0740  0.5163
 5065TIP3    H141306   0.237   2.980   2.431  0.2829  0.0056  0.1641
 5065TIP3    H241307   0.240   3.130   2.453  0.3063  0.2873 -1.5609
 5066TIP3   OH241308   3.412   0.650   1.117  0.0486  0.0488 -0.1355
 5066TIP3    H141309   3.335   0.598   1.137  1.2081 -1.0658  1.6551
 5066TIP3    H241310   3.457   0.660   1.201  1.0748  1.9858 -0.8519
 5067TIP3   OH241311   4.055   6.036   1.259  0.0915 -0.3677  0.3117
 5067TIP3    H141312   4.055   6.122   1.303 -0.3443  0.2512 -0.8386
 5067TIP3    H241313   4.142   6.000   1.275  0.4171  0.4708  0.4902
 5068TIP3   OH241314   5.620   2.432   7.499 -0.3378 -0.1168 -0.3904
 5068TIP3    H141315   5.664   2.504   7.544 -2.8706  2.0863 -1.1556
 5068TIP3    H241316   5.640   2.355   7.552  0.0127  1.6802  2.2867
 5069TIP3   OH241317   7.054   4.502   5.685  0.8932  0.1206  0.0267
 5069TIP3    H141318   7.067   4.561   5.759 -1.0684  0.3075  0.2838
 5069TIP3    H241319   6.973   4.455   5.706 -0.1899  0.7624 -2.3277
 5070TIP3   OH241320   6.345   0.351   1.536  0.1738  0.1550  0.6131
 5070TIP3    H141321   6.356   0.298   1.615 -0.9922 -0.3709  0.4380
 5070TIP3    H241322   6.394   0.303   1.469 -0.3005 -0.3354  0.6146
 5071TIP3   OH241323   5.251   4.415   2.588 -0.3217 -0.4616  0.5537
 5071TIP3    H141324   5.305   4.437   2.512 -0.3488  1.0106  0.9447
 5071TIP3    H241325   5.214   4.329   2.567 -1.8339  0.6951 -1.9572
 5072TIP3   OH241326   1.995   2.221   0.587  0.1188 -0.0299  0.5212
 5072TIP3    H141327   1.900   2.227   0.576  0.4674  3.8079 -2.6032
 5072TIP3    H241328   2.028   2.215   0.498  2.8948  0.2251  1.4593
 5073TIP3   OH241329   3.387   4.087   1.345  0.0703  0.3524  0.4096
 5073TIP3    H141330   3.438   4.024   1.396  0.3774  1.3538  1.3653
 5073TIP3    H241331   3.452   4.149   1.312 -0.3899  0.9895  0.6873
 5074TIP3   OH241332   0.737   7.528   1.393  0.2816 -0.2891  0.3344
 5074TIP3    H141333   0.682   7.588   1.443  1.0513 -0.2764  1.1944
 5074TIP3    H241334   0.677   7.484   1.333 -1.0606 -1.7961  2.6405
 5075TIP3   OH241335   5.404   0.690   0.018  0.2307 -0.3341  0.4495
 5075TIP3    H141336   5.439   0.739  -0.056 -1.5505  0.2320 -0.0882
 5075TIP3    H241337   5.447   0.727   0.094  0.4520  0.6406 -0.1280
 5076TIP3   OH241338   3.704   6.237   2.173 -0.1024  0.3716 -0.7235
 5076TIP3    H141339   3.709   6.332   2.171  0.0595  0.4438  1.0209
 5076TIP3    H241340   3.795   6.208   2.176 -0.0959  0.3738  2.1741
 5077TIP3   OH241341   8.023   5.901   6.334 -0.1593 -0.9218 -0.2816
 5077TIP3    H141342   7.961   5.936   6.270 -0.2234 -1.2479 -0.3968
 5077TIP3    H241343   8.041   5.812   6.304  0.9115 -0.5950 -0.6474
 5078TIP3   OH241344   0.970   4.033   6.524  0.2036  0.6759  1.0652
 5078TIP3    H141345   0.987   4.108   6.466  0.1969 -0.4346 -0.4477
 5078TIP3    H241346   0.910   3.978   6.473  0.8439 -0.7458  1.8042
 5079TIP3   OH241347   0.114   4.610   6.804  0.0478 -0.2391 -0.1695
 5079TIP3    H141348   0.116   4.566   6.889 -0.0349 -1.0221 -0.5676
 5079TIP3    H241349   0.182   4.677   6.810 -1.1638  0.9441  1.1649
 5080TIP3   OH241350   2.112   1.788   6.257 -0.6892 -0.3808  0.2032
 5080TIP3    H141351   2.111   1.775   6.162  0.7500  1.5095 -0.1422
 5080TIP3    H241352   2.205   1.791   6.280 -0.9621  1.2004  1.3077
 5081TIP3   OH241353   3.434   1.610   6.463  0.1868  0.8286 -0.1984
 5081TIP3    H141354   3.390   1.609   6.378  1.6394  1.1456 -0.9818
 5081TIP3    H241355   3.362   1.615   6.527 -0.8943  1.5574 -1.4261
 5082TIP3   OH241356   2.562   6.435   5.391 -0.1034 -0.1374  0.3148
 5082TIP3    H141357   2.642   6.474   5.425 -0.7829  1.0472  0.6057
 5082TIP3    H241358   2.571   6.341   5.410  1.8189 -0.2528 -0.9332
 5083TIP3   OH241359   1.231   4.389   7.423  0.5875  0.6503  0.3863
 5083TIP3    H141360   1.279   4.320   7.378 -1.2156 -1.3141  1.3399
 5083TIP3    H241361   1.152   4.402   7.370  0.6360  1.5941  0.5247
 5084TIP3   OH241362   5.635   2.009   7.813 -0.1994 -0.1556 -0.1159
 5084TIP3    H141363   5.612   1.958   7.892  0.7675 -1.8088 -0.8564
 5084TIP3    H241364   5.571   1.980   7.748  0.2528 -0.3094 -0.4940
 5085TIP3   OH241365   3.428   1.362   7.649 -0.3182  0.1879  0.1198
 5085TIP3    H141366   3.414   1.404   7.564  2.2139 -0.1506 -0.5440
 5085TIP3    H241367   3.370   1.285   7.648 -1.1068  0.7758 -0.8363
 5086TIP3   OH241368   4.471   4.327   1.239  0.5118 -0.1734  0.6782
 5086TIP3    H141369   4.559   4.290   1.230  1.5065  1.7828  1.8044
 5086TIP3    H241370   4.418   4.255   1.273  1.5380 -1.5281 -0.4977
 5087TIP3   OH241371   7.976   6.593   1.309 -0.1559 -0.2791  0.5837
 5087TIP3    H141372   8.034   6.519   1.289 -1.4401 -1.5400  1.3343
 5087TIP3    H241373   7.888   6.556   1.306 -0.7290  0.7306  2.9464
 5088TIP3   OH241374   6.113   7.985   7.773  0.3487  0.0712  0.3755
 5088TIP3    H141375   6.022   7.959   7.782  0.4601  0.2037  2.1245
 5088TIP3    H241376   6.133   7.969   7.680 -1.4358  0.0798 -0.0479
 5089TIP3   OH241377   7.045   0.768   1.669 -0.4439  0.1067  0.8001
 5089TIP3    H141378   7.043   0.696   1.605 -0.1420  1.3549 -0.6668
 5089TIP3    H241379   6.966   0.818   1.651 -1.1077 -0.3000  2.4069
 5090TIP3   OH241380   7.538   4.104   7.286  0.0010 -0.2373  0.2616
 5090TIP3    H141381   7.459   4.084   7.336 -1.7978 -1.2558 -2.6841
 5090TIP3    H241382   7.543   4.199   7.285  0.9988 -0.1452  3.4678
 5091TIP3   OH241383   2.956   6.106   7.388  0.1389 -0.4943  0.1328
 5091TIP3    H141384   2.937   6.097   7.295  3.0952 -1.1491 -0.5082
 5091TIP3    H241385   2.928   6.022   7.426 -1.2108 -0.1689 -0.0759
 5092TIP3   OH241386   7.870   1.151   7.172  0.3058  0.3110  0.1446
 5092TIP3    H141387   7.828   1.101   7.242  0.3101 -0.9789 -0.7461
 5092TIP3    H241388   7.825   1.123   7.092  0.0150  2.0654 -0.3458
 5093TIP3   OH241389   2.452   1.239   1.202 -0.2990  0.4795  0.4303
 5093TIP3    H141390   2.428   1.246   1.109  0.1005  1.0545  0.3664
 5093TIP3    H241391   2.406   1.311   1.245  0.2263  0.7685  0.5247
 5094TIP3   OH241392   2.127   0.481   0.357 -0.1622  0.7324 -0.0800
 5094TIP3    H141393   2.195   0.458   0.294 -0.5782  1.8444 -0.9674
 5094TIP3    H241394   2.174   0.498   0.438  0.4284 -0.2713 -0.2015
 5095TIP3   OH241395   1.269   1.671   6.228 -0.0842  0.3839 -0.1935
 5095TIP3    H141396   1.254   1.679   6.134  1.2716 -1.3674 -0.6051
 5095TIP3    H241397   1.317   1.589   6.238  0.8785  1.1287  1.9053
 5096TIP3   OH241398   0.046   6.935   6.525  0.0457  0.3820  0.6029
 5096TIP3    H141399   0.088   6.852   6.503 -0.1542 -0.4447  2.9976
 5096TIP3    H241400   0.009   6.920   6.612 -1.0790  2.6091  0.5694
 5097TIP3   OH241401   3.698   3.264   6.596  0.5679 -0.2588  0.1742
 5097TIP3    H141402   3.786   3.270   6.635 -0.0089  0.3612  1.4503
 5097TIP3    H241403   3.701   3.184   6.544  2.5828  0.9311 -1.6888
 5098TIP3   OH241404   2.589   4.552   6.602  0.5320  0.3385 -0.0725
 5098TIP3    H141405   2.545   4.615   6.658  1.6878  0.5372  0.6522
 5098TIP3    H241406   2.654   4.605   6.554  1.4923 -0.2701  0.5215
 5099TIP3   OH241407   3.642   7.980   7.541 -0.1553 -0.1133 -0.5340
 5099TIP3    H141408   3.648   7.899   7.490 -0.6461 -0.5185  0.0299
 5099TIP3    H241409   3.665   8.049   7.480 -0.1895 -0.6396 -1.1515
 5100TIP3   OH241410   6.796   3.732   7.771  0.1339 -0.5434 -0.0553
 5100TIP3    H141411   6.800   3.687   7.686 -1.3483 -0.1017 -0.3855
 5100TIP3    H241412   6.727   3.686   7.819  0.2910 -0.1676  0.5349
 5101TIP3   OH241413   1.394   3.548   6.590 -0.1490  0.4272 -0.3675
 5101TIP3    H141414   1.448   3.607   6.642  2.2211 -0.6672 -1.4307
 5101TIP3    H241415   1.408   3.576   6.499 -0.2329 -0.7461 -0.7702
 5102TIP3   OH241416   4.736   3.246   0.107  0.2036  0.1543  0.8172
 5102TIP3    H141417   4.811   3.272   0.053  1.1769 -1.5319  1.2747
 5102TIP3    H241418   4.713   3.159   0.075  1.2400 -1.2058  3.4433
 5103TIP3   OH241419   0.114   4.595   1.001  0.3277 -0.0523 -0.0384
 5103TIP3    H141420   0.192   4.577   0.947  0.9068 -2.6233  1.4531
 5103TIP3    H241421   0.105   4.690   0.999  0.8468  0.0835 -3.8499
 5104TIP3   OH241422   6.748   7.358   0.318  0.2130 -0.1510 -0.1249
 5104TIP3    H141423   6.839   7.388   0.316  0.0768  0.2726 -0.1376
 5104TIP3    H241424   6.736   7.322   0.406  0.3597 -0.1009 -0.0838
 5105TIP3   OH241425   5.548   3.380   6.661 -0.1645  0.4119 -0.7994
 5105TIP3    H141426   5.541   3.448   6.728 -0.1303 -0.2376 -0.1187
 5105TIP3    H241427   5.482   3.315   6.686  1.0033 -0.6595 -0.4069
 5106TIP3   OH241428   2.365   2.694   5.957  0.2399  0.2065 -0.6415
 5106TIP3    H141429   2.422   2.720   5.885  0.8227  1.6591  0.2920
 5106TIP3    H241430   2.348   2.776   6.004 -1.8714 -0.3415 -0.3535
 5107TIP3   OH241431   3.019   1.675   6.736 -0.1081  0.5495  0.5195
 5107TIP3    H141432   3.009   1.661   6.830 -0.4621 -2.4716  0.1569
 5107TIP3    H241433   3.111   1.655   6.718 -0.1008  0.8645  0.2023
 5108TIP3   OH241434   5.120   7.331   0.483  0.2004 -0.2346 -0.2132
 5108TIP3    H141435   5.077   7.407   0.521 -1.2177 -1.0926 -0.0351
 5108TIP3    H241436   5.204   7.325   0.528 -0.6131 -0.0771  1.3906
 5109TIP3   OH241437   7.199   3.620   6.540  0.0831 -0.4685  0.1861
 5109TIP3    H141438   7.190   3.619   6.445 -0.0853  0.1449  0.1959
 5109TIP3    H241439   7.238   3.705   6.560 -1.7133  0.2475  0.8348
 5110TIP3   OH241440   3.205   3.590   5.875  0.2760 -0.2427 -0.1490
 5110TIP3    H141441   3.153   3.530   5.822  0.7058 -0.6105 -0.1610
 5110TIP3    H241442   3.294   3.554   5.872  0.4763  0.2222  0.0980
 5111TIP3   OH241443   1.252   4.075   1.202  0.2609  0.0441  0.3427
 5111TIP3    H141444   1.181   4.058   1.265  0.4479 -1.1434  0.2507
 5111TIP3    H241445   1.209   4.069   1.117  0.0136  1.6255  0.3381
 5112TIP3   OH241446   7.080   7.602   1.193  0.3422 -0.0491 -0.0084
 5112TIP3    H141447   7.003   7.654   1.171  0.6716  1.1185  1.3953
 5112TIP3    H241448   7.048   7.538   1.257  0.1924 -0.7458 -0.7727
 5113TIP3   OH241449   4.761   4.698   1.316 -0.1097  0.5364 -0.0146
 5113TIP3    H141450   4.771   4.671   1.225  0.6640 -0.5070  0.3523
 5113TIP3    H241451   4.821   4.641   1.364  0.3478  1.8493  1.0192
 5114TIP3   OH241452   7.801   4.290   1.473 -0.1395  0.2958 -0.1654
 5114TIP3    H141453   7.723   4.257   1.519  0.2568 -0.6711 -0.1559
 5114TIP3    H241454   7.767   4.355   1.412 -1.0306 -0.4701 -0.5105
 5115TIP3   OH241455   0.302   5.440   7.846  0.3547  0.5585 -0.5072
 5115TIP3    H141456   0.322   5.507   7.781 -0.0582  1.6292  0.4374
 5115TIP3    H241457   0.307   5.485   7.930 -0.0094 -0.5769  0.1540
 5116TIP3   OH241458   0.202   0.321   5.627  0.3024 -0.0376  0.2593
 5116TIP3    H141459   0.186   0.415   5.629  0.3114 -0.0348  2.6014
 5116TIP3    H241460   0.214   0.301   5.534  1.0043  2.3831 -0.2505
 5117TIP3   OH241461   0.985   2.455   0.912 -0.0964 -0.4312 -0.4922
 5117TIP3    H141462   0.997   2.475   1.005  0.9849  1.8803 -1.0413
 5117TIP3    H241463   0.905   2.503   0.888  0.5283  0.3339 -1.0848
 5118TIP3   OH241464   0.174   7.834   6.274 -0.4185  0.2270  0.2241
 5118TIP3    H141465   0.157   7.741   6.261 -0.6899  0.3362 -0.2103
 5118TIP3    H241466   0.269   7.842   6.263 -0.6531  0.3514 -2.0180
 5119TIP3   OH241467   0.433   2.636   7.470 -0.4237  0.1465  0.2777
 5119TIP3    H141468   0.419   2.634   7.375 -0.9500 -0.3791  0.3649
 5119TIP3    H241469   0.395   2.719   7.498 -1.3886 -0.2536  0.1967
 5120TIP3   OH241470   2.840   0.891   7.512  0.0816 -0.4323  0.0429
 5120TIP3    H141471   2.756   0.918   7.549  1.4270  1.0891  2.2076
 5120TIP3    H241472   2.826   0.893   7.417 -1.5210  2.6844  0.2189
 5121TIP3   OH241473   1.217   3.669   0.525  0.2208 -0.2664 -0.4508
 5121TIP3    H141474   1.152   3.648   0.591 -0.0478 -1.5862 -1.1091
 5121TIP3    H241475   1.290   3.708   0.574 -0.6205  0.2814  0.4066
 5122TIP3   OH241476   0.293   1.103   0.622 -0.3739  0.5796  0.4297
 5122TIP3    H141477   0.317   1.140   0.706  1.3993  0.1622  0.1356
 5122TIP3    H241478   0.333   1.162   0.557  0.8375 -0.7331 -0.0593
 5123TIP3   OH241479   1.672   3.435   1.714  0.3806  0.1390  0.5279
 5123TIP3    H141480   1.580   3.407   1.704  0.9077 -1.0338 -1.6225
 5123TIP3    H241481   1.669   3.530   1.703 -0.5152  0.0397 -0.2948
 5124TIP3   OH241482   1.869   7.004   0.416 -0.0729 -0.6567  0.4135
 5124TIP3    H141483   1.892   7.096   0.434 -0.4420 -0.8303  1.9763
 5124TIP3    H241484   1.897   6.989   0.326 -0.0674  1.0144  0.0996
 5125TIP3   OH241485   7.978   0.793   6.974 -0.1070 -0.7223 -0.8369
 5125TIP3    H141486   7.892   0.758   6.949  0.2970 -2.5634  0.1412
 5125TIP3    H241487   8.038   0.720   6.960  0.7839 -0.5186  1.4699
 5126TIP3   OH241488   2.164   2.765   0.362 -0.5363  0.3800  0.4213
 5126TIP3    H141489   2.217   2.710   0.420 -1.0730  0.2483  0.7999
 5126TIP3    H241490   2.203   2.755   0.276 -0.8682 -0.9335  0.4002
 5127TIP3   OH241491   5.340   2.184   0.277 -0.7497  0.8592 -0.1583
 5127TIP3    H141492   5.395   2.106   0.276 -1.0737  0.6287 -0.4266
 5127TIP3    H241493   5.251   2.149   0.279 -0.8858  1.2270  0.2984
 5128TIP3   OH241494   0.281   7.565   7.428 -0.4094  0.0679  0.5421
 5128TIP3    H141495   0.222   7.612   7.369  0.2547 -0.8836 -0.9656
 5128TIP3    H241496   0.267   7.473   7.407  1.5367 -0.1861  0.1528
 5129TIP3   OH241497   7.881   5.917   1.211 -0.3581  0.4237  0.1358
 5129TIP3    H141498   7.827   5.996   1.199 -1.2981  0.1415  2.0678
 5129TIP3    H241499   7.872   5.896   1.304  0.8603 -1.2765 -0.0848
 5130TIP3   OH241500   0.612   6.278   6.695 -0.3951  0.0599  0.2889
 5130TIP3    H141501   0.517   6.286   6.693 -0.3099  1.4672  0.8458
 5130TIP3    H241502   0.633   6.263   6.787 -0.1096 -0.8592  0.0814
 5131TIP3   OH241503   0.749   5.975   7.723  0.2168  0.8984 -0.1465
 5131TIP3    H141504   0.773   6.018   7.641  0.3321  0.6735 -0.2310
 5131TIP3    H241505   0.830   5.970   7.773  0.0437  1.5211  0.2095
 5132TIP3   OH241506   0.848   6.364   7.082 -0.8091  0.0829  0.2227
 5132TIP3    H141507   0.899   6.443   7.066 -2.5389  0.9957 -1.0123
 5132TIP3    H241508   0.885   6.299   7.022 -0.4461  0.4344  0.0629
 5133TIP3   OH241509   4.647   3.175   1.289  0.0639  0.1864 -0.2325
 5133TIP3    H141510   4.553   3.193   1.290  0.2623  1.3259  1.0467
 5133TIP3    H241511   4.664   3.132   1.373  1.2115  3.2596  1.2765
 5134TIP3   OH241512   1.824   1.270   1.004  0.4624 -0.1032 -0.3377
 5134TIP3    H141513   1.815   1.181   1.038  0.3771  0.1545  0.3364
 5134TIP3    H241514   1.870   1.318   1.074  3.3184 -0.3394 -1.9084
 5135TIP3   OH241515   1.448   0.039   7.071 -0.6030  0.6441 -0.2146
 5135TIP3    H141516   1.525  -0.009   7.101 -1.1521 -0.5822 -0.6847
 5135TIP3    H241517   1.477   0.086   6.993 -0.2799  0.3418 -0.2758
 5136TIP3   OH241518   0.879   7.203   0.360 -0.3329  0.2265  0.0657
 5136TIP3    H141519   0.953   7.174   0.414  0.1308  0.1555 -0.5882
 5136TIP3    H241520   0.882   7.147   0.283 -0.9919  0.3159 -0.0323
 5137TIP3   OH241521   1.374   1.914   6.145  0.0814 -0.6960 -0.1803
 5137TIP3    H141522   1.357   1.954   6.059 -0.7530  1.1296  0.7577
 5137TIP3    H241523   1.288   1.888   6.177  0.2947 -0.7024  0.4033
 5138TIP3   OH241524   5.116   7.741   6.494 -0.9153 -0.0805 -0.4781
 5138TIP3    H141525   5.093   7.657   6.455 -2.3787 -0.1608  0.4638
 5138TIP3    H241526   5.211   7.740   6.500 -0.7593 -0.7757 -2.3964
 5139TIP3   OH241527   5.280   5.565   1.417 -0.0742 -0.8611  0.1368
 5139TIP3    H141528   5.201   5.514   1.434 -0.1241 -0.8214  0.0217
 5139TIP3    H241529   5.349   5.517   1.463  0.1438 -1.8602 -1.1683
 5140TIP3   OH241530   6.695   1.857   6.299  0.4087  0.0246  0.0389
 5140TIP3    H141531   6.691   1.846   6.204  3.3458  4.1663 -0.8450
 5140TIP3    H241532   6.771   1.804   6.325 -0.4661 -1.2057  0.2051
 5141TIP3   OH241533   6.108   6.031   5.577  0.4106  1.1736  0.2827
 5141TIP3    H141534   6.016   6.020   5.601  0.5763 -0.6237  0.2617
 5141TIP3    H241535   6.107   6.050   5.483  0.0863 -2.2898 -0.5731
 5142TIP3   OH241536   4.087   2.492   7.394 -0.4432 -0.6169 -0.2750
 5142TIP3    H141537   4.051   2.403   7.390 -2.1041  0.0566 -1.2539
 5142TIP3    H241538   4.015   2.549   7.368  0.5608  1.0508  0.3977
 5143TIP3   OH241539   0.471   4.475   0.040  0.1352 -0.2775 -0.3269
 5143TIP3    H141540   0.477   4.452  -0.053 -1.7819 -0.3943 -0.4600
 5143TIP3    H241541   0.502   4.398   0.087  2.1408  0.1570 -0.8346
 5144TIP3   OH241542   6.557   5.930   0.733 -0.0516  0.2434  0.3826
 5144TIP3    H141543   6.495   5.914   0.804  0.7560 -0.1820  1.0062
 5144TIP3    H241544   6.529   5.871   0.663  0.2923 -0.7332  1.0604
 5145TIP3   OH241545   6.741   0.360   7.232 -0.6681  0.3454  0.3013
 5145TIP3    H141546   6.753   0.347   7.326 -0.2024  1.0324  0.3477
 5145TIP3    H241547   6.780   0.446   7.214  1.1629 -0.6597 -0.8861
 5146TIP3   OH241548   4.528   5.462   6.550 -0.2108  0.3044 -0.3795
 5146TIP3    H141549   4.612   5.502   6.572  0.5752  0.2278 -2.9023
 5146TIP3    H241550   4.550   5.378   6.510 -1.3849  0.7132 -2.0132
 5147TIP3   OH241551   7.695   1.812   0.885 -0.5977 -0.3658  0.2985
 5147TIP3    H141552   7.710   1.802   0.979  0.1073 -1.1064  0.1162
 5147TIP3    H241553   7.611   1.768   0.870 -0.6817 -0.3007  0.5715
 5148TIP3   OH241554   2.345   2.965   0.486 -0.6069 -0.2664  0.3848
 5148TIP3    H141555   2.385   2.893   0.436  2.2567 -0.4016  2.6094
 5148TIP3    H241556   2.285   2.921   0.547 -0.6860 -0.5132  0.1336
 5149TIP3   OH241557   2.401   2.960   6.486 -0.3274 -0.2930 -0.8262
 5149TIP3    H141558   2.479   2.904   6.481  0.1607  0.4262 -1.4945
 5149TIP3    H241559   2.379   2.961   6.579  1.5906  0.9764 -0.3182
 5150TIP3   OH241560   7.681   1.889   7.469  0.2491  0.4119  0.2390
 5150TIP3    H141561   7.629   1.818   7.429  1.8088 -0.3175 -0.5842
 5150TIP3    H241562   7.636   1.969   7.442 -0.7534 -0.2131  0.0014
 5151TIP3   OH241563   3.777   7.000   6.239 -0.5132  0.1480  0.6177
 5151TIP3    H141564   3.763   7.014   6.145  3.5244  1.4654  0.0193
 5151TIP3    H241565   3.751   6.909   6.254 -0.7143 -0.2873 -1.9364
 5152TIP3   OH241566   5.673   4.988   0.413 -0.4389 -0.2075  0.4548
 5152TIP3    H141567   5.631   4.992   0.499  0.4302 -0.9574  0.9264
 5152TIP3    H241568   5.630   4.915   0.369 -1.0767  0.3474  0.1237
 5153TIP3   OH241569   7.003   0.734   6.709  0.2885  0.6505  0.3215
 5153TIP3    H141570   6.980   0.807   6.651  0.0259  1.0304  0.8904
 5153TIP3    H241571   6.934   0.669   6.695  1.8145 -0.5650 -1.9866
 5154TIP3   OH241572   2.492   7.413   5.884  0.3180 -0.3745 -0.4706
 5154TIP3    H141573   2.545   7.396   5.961  0.1226  2.7583  0.5105
 5154TIP3    H241574   2.419   7.465   5.916  0.4519  1.4051 -2.7662
 5155TIP3   OH241575   0.709   0.403   7.938  0.4655 -0.0698 -0.4587
 5155TIP3    H141576   0.758   0.483   7.923 -0.3887  0.5011 -0.2505
 5155TIP3    H241577   0.708   0.360   7.852  0.6193  0.3087 -0.6524
 5156TIP3   OH241578   6.954   1.507   5.844 -0.0448 -0.2296 -0.1906
 5156TIP3    H141579   6.895   1.433   5.827  0.2189 -0.7032  0.9164
 5156TIP3    H241580   6.937   1.567   5.771 -1.1288 -0.8320 -0.4648
 5157TIP3   OH241581   5.817   3.615   6.481  0.7346  0.5922  0.3885
 5157TIP3    H141582   5.762   3.662   6.544  0.0085 -1.0421  1.0210
 5157TIP3    H241583   5.905   3.621   6.517  0.1531 -1.4437  2.3537
 5158TIP3   OH241584   5.178   4.492   7.151 -0.6101  0.4477 -0.1482
 5158TIP3    H141585   5.218   4.415   7.193 -0.9055 -0.0423 -0.7583
 5158TIP3    H241586   5.252   4.550   7.133 -0.4546  0.5933  0.8831
 5159TIP3   OH241587   3.442   2.198   1.424 -0.5246 -0.3901  0.0724
 5159TIP3    H141588   3.527   2.169   1.391 -1.0012 -2.1795  0.3146
 5159TIP3    H241589   3.459   2.225   1.515  0.3364  2.3407 -0.7769
 5160TIP3   OH241590   5.240   7.239   7.719 -0.4092  0.2886  0.2290
 5160TIP3    H141591   5.175   7.284   7.773  1.3906  0.0956  2.7320
 5160TIP3    H241592   5.248   7.294   7.640 -3.1375  0.5810  0.0634
 5161TIP3   OH241593   1.963   3.570   2.640  0.5167  0.3464 -0.2063
 5161TIP3    H141594   2.023   3.590   2.712  1.6909  1.0045 -1.3337
 5161TIP3    H241595   2.018   3.529   2.573 -0.7107 -1.0190 -0.4288
 5162TIP3   OH241596   6.492   4.816   2.257 -0.3234 -0.3118 -0.2193
 5162TIP3    H141597   6.448   4.746   2.306 -0.1916 -0.3678 -0.1797
 5162TIP3    H241598   6.572   4.833   2.307  0.2371 -0.9534 -0.8761
 5163TIP3   OH241599   2.296   6.066   1.230  0.5332  0.1381  0.6196
 5163TIP3    H141600   2.274   6.145   1.182 -2.0485 -1.1585 -0.5167
 5163TIP3    H241601   2.225   6.056   1.293  2.1918  0.0594  2.5853
 5164TIP3   OH241602   2.106   0.519   7.002  0.2321 -0.7128 -0.0361
 5164TIP3    H141603   2.175   0.495   6.940  0.9331 -0.5177  0.6581
 5164TIP3    H241604   2.042   0.566   6.949  0.4571 -1.1985 -0.7580
 5165TIP3   OH241605   6.726   6.019   1.567  0.2508  0.0673  0.1110
 5165TIP3    H141606   6.774   6.027   1.484 -2.2042 -2.0318 -1.6701
 5165TIP3    H241607   6.794   6.000   1.632  2.0749 -0.5688 -1.8519
 5166TIP3   OH241608   5.029   6.017   0.081  0.2302  0.1413 -0.3777
 5166TIP3    H141609   5.108   6.064   0.107 -0.2921  1.3178 -0.8224
 5166TIP3    H241610   5.051   5.978  -0.004 -0.5869  3.0938 -2.0776
 5167TIP3   OH241611   5.950   2.690   0.404  0.1654 -0.5735  0.2327
 5167TIP3    H141612   5.967   2.616   0.462 -2.0545 -1.4915 -0.2071
 5167TIP3    H241613   5.855   2.693   0.394  0.3661  0.4418 -2.1859
 5168TIP3   OH241614   4.876   0.931   6.968 -0.6927 -0.4616  0.5258
 5168TIP3    H141615   4.896   0.946   6.876  0.8906 -2.0692  0.5749
 5168TIP3    H241616   4.789   0.969   6.979 -0.2421  1.2400 -1.2128
 5169TIP3   OH241617   0.910   0.095   1.920 -0.4627 -0.6272  0.5596
 5169TIP3    H141618   0.845   0.070   1.985  1.3317 -4.4749  1.1780
 5169TIP3    H241619   0.887   0.046   1.842 -0.7325  1.4286 -0.7314
 5170TIP3   OH241620   3.363   1.995   6.829  0.0277 -0.4999  0.1718
 5170TIP3    H141621   3.376   2.058   6.900 -0.0818 -2.3150  1.8877
 5170TIP3    H241622   3.269   1.981   6.825 -0.1586  0.8902 -1.5890
 5171TIP3   OH241623   1.175   4.536   0.261  0.2129 -0.3119  0.3503
 5171TIP3    H141624   1.270   4.533   0.270  0.2074 -2.4289  0.3012
 5171TIP3    H241625   1.145   4.451   0.295 -2.0736  1.7622  4.2701
 5172TIP3   OH241626   2.004   3.656   0.442  0.3075 -0.1506 -0.6391
 5172TIP3    H141627   1.929   3.618   0.488  0.5277 -0.3794 -0.4640
 5172TIP3    H241628   1.969   3.733   0.398  0.8265  2.7163  3.3433
 5173TIP3   OH241629   4.934   5.568   5.662 -0.1401 -0.6081  0.0731
 5173TIP3    H141630   4.958   5.591   5.572  1.0390 -4.1885 -0.6779
 5173TIP3    H241631   4.844   5.600   5.672  0.5761  2.1399 -1.4088
 5174TIP3   OH241632   1.004   1.619   5.557  0.5145 -0.1230 -0.1745
 5174TIP3    H141633   0.941   1.550   5.535 -0.3217  0.7495 -0.5830
 5174TIP3    H241634   1.085   1.592   5.514  0.5665 -1.4804  0.7132
 5175TIP3   OH241635   7.487   2.689   2.436  0.3733 -0.1076  0.3749
 5175TIP3    H141636   7.470   2.596   2.421  1.0021 -0.1549 -0.0905
 5175TIP3    H241637   7.407   2.722   2.476  0.2097 -0.8881  0.7021
 5176TIP3   OH241638   1.756   6.879   1.647  0.4484 -0.3804  0.2587
 5176TIP3    H141639   1.814   6.893   1.722 -1.3158 -0.7584  1.7566
 5176TIP3    H241640   1.680   6.934   1.665 -0.6339 -1.5751 -0.5352
 5177TIP3   OH241641   5.994   2.449   7.192  0.3471 -0.1878 -0.2025
 5177TIP3    H141642   5.924   2.509   7.167  1.6711  1.0332 -1.1628
 5177TIP3    H241643   5.990   2.379   7.127  0.9662  0.6910 -1.2280
 5178TIP3   OH241644   7.416   0.179   0.061 -0.2097  0.6457 -0.6038
 5178TIP3    H141645   7.472   0.153  -0.012 -0.1283  1.9506 -1.0277
 5178TIP3    H241646   7.476   0.189   0.135 -0.1432  0.3356 -0.6139
 5179TIP3   OH241647   4.490   5.951   6.429 -0.3350  0.0676  0.1391
 5179TIP3    H141648   4.518   5.861   6.412 -0.4211 -0.2950  1.7801
 5179TIP3    H241649   4.538   5.977   6.507  0.0830  1.6575 -0.6207
 5180TIP3   OH241650   5.151   3.296   6.628  0.1704 -0.1026 -0.2094
 5180TIP3    H141651   5.151   3.391   6.638 -0.9509 -0.0229 -0.7562
 5180TIP3    H241652   5.073   3.267   6.676 -0.0404 -0.6345 -0.8509
 5181TIP3   OH241653   1.998   0.164   5.663 -0.4173 -0.5159 -0.0670
 5181TIP3    H141654   2.027   0.072   5.659  1.0666 -0.0762 -0.0613
 5181TIP3    H241655   1.902   0.159   5.668 -0.4499 -2.0335 -1.3967
 5182TIP3   OH241656   6.892   4.156   2.125 -0.1717 -0.8136 -0.3950
 5182TIP3    H141657   6.874   4.067   2.154 -0.4778 -0.3170  0.9982
 5182TIP3    H241658   6.844   4.212   2.186 -1.4963  0.2945 -2.3157
 5183TIP3   OH241659   7.446   4.206   2.185 -0.3371 -0.2148 -0.3071
 5183TIP3    H141660   7.469   4.235   2.096  0.3042 -0.4910 -0.2354
 5183TIP3    H241661   7.384   4.134   2.171 -0.4500 -0.0768 -0.5242
 5184TIP3   OH241662   6.576   0.467   5.633  0.3305  0.1005  0.1359
 5184TIP3    H141663   6.554   0.402   5.565  0.2353  0.7825 -0.4984
 5184TIP3    H241664   6.507   0.533   5.625  1.7975  1.5705 -0.9564
 5185TIP3   OH241665   6.053   5.128   1.196 -0.8419  0.0852 -0.1454
 5185TIP3    H141666   6.137   5.088   1.220 -1.1250 -0.0470  0.6474
 5185TIP3    H241667   6.001   5.124   1.276 -1.5764  0.2490 -0.6096
 5186TIP3   OH241668   3.367   7.466   7.036  0.1460  0.5330 -0.0538
 5186TIP3    H141669   3.443   7.520   7.013 -1.0861  1.5932 -1.8907
 5186TIP3    H241670   3.302   7.528   7.069 -0.9816  0.1022 -1.3600
 5187TIP3   OH241671   6.959   3.217   7.110  0.2915 -1.0522 -0.4058
 5187TIP3    H141672   6.936   3.280   7.178  3.0669 -2.6697  2.2208
 5187TIP3    H241673   6.957   3.269   7.029  0.8214  2.0045  1.3751
 5188TIP3   OH241674   1.118   0.336   0.153  0.2093  0.3301 -0.0844
 5188TIP3    H141675   1.192   0.294   0.109 -0.2596 -0.5318 -0.0719
 5188TIP3    H241676   1.048   0.271   0.148 -0.1090  0.5555  1.2009
 5189TIP3   OH241677   0.800   0.985   6.772 -0.1938 -0.7405  0.0319
 5189TIP3    H141678   0.878   1.016   6.725  0.0124 -0.9119  0.2549
 5189TIP3    H241679   0.744   1.062   6.780 -0.8509 -1.0073 -1.6933
 5190TIP3   OH241680   2.270   1.616   1.373 -0.4538  0.0864 -0.2609
 5190TIP3    H141681   2.205   1.596   1.441 -1.0176  1.1553 -0.4584
 5190TIP3    H241682   2.294   1.531   1.337 -2.2123 -0.3072 -0.5953
 5191TIP3   OH241683   4.628   3.700   0.160 -0.4906  0.6056  0.1798
 5191TIP3    H141684   4.533   3.693   0.157 -0.4703 -2.2219  2.5020
 5191TIP3    H241685   4.658   3.652   0.082 -0.9918 -1.0564  0.9625
 5192TIP3   OH241686   3.098   5.610   5.530  0.6041 -0.3635 -0.3105
 5192TIP3    H141687   3.176   5.555   5.521  1.5447  0.7799  0.4857
 5192TIP3    H241688   3.062   5.616   5.442  2.1602  0.1126 -0.9565
 5193TIP3   OH241689   0.177   3.679   2.160  0.1175 -0.0890 -0.1722
 5193TIP3    H141690   0.265   3.718   2.166  0.6098 -1.1583 -0.1439
 5193TIP3    H241691   0.193   3.589   2.131 -0.8619 -0.7706  1.3161
 5194TIP3   OH241692   3.422   6.032   0.260  0.2754 -0.1219 -0.1253
 5194TIP3    H141693   3.375   6.079   0.329  0.2087  0.5934 -0.6453
 5194TIP3    H241694   3.513   6.028   0.290  0.0347 -0.8389  0.5319
 5195TIP3   OH241695   2.102   0.860   1.264 -0.0026 -0.1630  0.4961
 5195TIP3    H141696   2.018   0.817   1.250 -0.3924  1.0162 -0.9654
 5195TIP3    H241697   2.166   0.799   1.228 -0.3109 -0.6234  0.7170
 5196TIP3   OH241698   6.349   3.165   6.245  0.2554 -0.1549 -0.2655
 5196TIP3    H141699   6.335   3.182   6.151 -0.1783 -1.0587 -0.3752
 5196TIP3    H241700   6.266   3.128   6.275  0.3027  0.3665  0.5469
 5197TIP3   OH241701   7.077   2.182   1.841  0.2584  0.2627 -0.4989
 5197TIP3    H141702   7.001   2.240   1.835 -0.1616 -0.2697 -0.3667
 5197TIP3    H241703   7.071   2.126   1.764 -0.8666 -1.4282  0.7536
 5198TIP3   OH241704   0.187   7.038   1.969 -0.3996 -0.1528  0.3713
 5198TIP3    H141705   0.250   7.025   2.040 -2.0117 -2.6213  1.5043
 5198TIP3    H241706   0.188   6.955   1.921 -3.4473 -0.6994  1.0596
 5199TIP3   OH241707   1.104   8.025   0.459 -0.5687 -0.5328  0.5613
 5199TIP3    H141708   1.188   8.028   0.412 -0.3143  0.1311  1.0460
 5199TIP3    H241709   1.045   7.979   0.399  0.2818 -1.4909  0.4383
 5200TIP3   OH241710   4.595   2.434   7.778  0.6887  0.4962 -0.2728
 5200TIP3    H141711   4.601   2.480   7.861 -0.8711  0.0822  0.1044
 5200TIP3    H241712   4.650   2.484   7.718 -0.0942  2.2158  0.3856
 5201TIP3   OH241713   6.811   4.946   2.701  0.1289  0.7079 -0.6018
 5201TIP3    H141714   6.798   4.970   2.793 -2.3469  0.2103 -0.7494
 5201TIP3    H241715   6.905   4.929   2.693  0.4996  1.3963  1.6651
 5202TIP3   OH241716   0.973   5.777   7.566  0.0808  0.1569 -0.1964
 5202TIP3    H141717   1.046   5.750   7.511 -1.7951  1.1983 -3.5083
 5202TIP3    H241718   0.926   5.841   7.513 -2.6352  0.3325  2.1852
 5203TIP3   OH241719   6.711   3.591   7.172  0.4941  0.5305  0.0493
 5203TIP3    H141720   6.673   3.679   7.172  0.5429  0.5567 -0.3320
 5203TIP3    H241721   6.636   3.532   7.166  0.4043  0.5052  1.1796
 5204TIP3   OH241722   7.681   2.158   0.838  0.1932 -0.2866 -0.2404
 5204TIP3    H141723   7.607   2.163   0.777 -0.3802  1.5511  0.5529
 5204TIP3    H241724   7.722   2.244   0.833  1.1565 -0.6681  0.7321
 5205TIP3   OH241725   6.635   5.557   7.087  0.5140  0.0557 -0.0766
 5205TIP3    H141726   6.552   5.577   7.132  1.9532  2.0165  1.9190
 5205TIP3    H241727   6.674   5.643   7.070  2.3629 -0.8375 -0.5657
 5206TIP3   OH241728   0.319   2.825   0.128  0.2948  0.1433  0.6323
 5206TIP3    H141729   0.402   2.824   0.177  1.9232  0.5397 -1.9165
 5206TIP3    H241730   0.326   2.902   0.071 -0.2850 -1.6368 -2.0358
 5207TIP3   OH241731   7.486   0.181   0.999 -0.3656 -0.0823 -0.2317
 5207TIP3    H141732   7.541   0.227   1.063 -0.2665 -0.7693  0.1807
 5207TIP3    H241733   7.422   0.134   1.051 -1.5030  0.8780 -0.7208
 5208TIP3   OH241734   6.653   1.158   1.947 -0.6179 -0.4902  0.0347
 5208TIP3    H141735   6.644   1.253   1.943 -2.0922 -0.5123  1.7348
 5208TIP3    H241736   6.731   1.139   1.895  0.2317  1.7295  0.4008
 5209TIP3   OH241737   7.095   7.607   2.141  0.1103  0.9002 -0.8835
 5209TIP3    H141738   7.091   7.528   2.195  1.2445  0.1977 -1.7890
 5209TIP3    H241739   7.021   7.660   2.171 -0.8575 -0.6238 -0.4439
 5210TIP3   OH241740   3.094   4.865   1.513 -0.0056 -0.3503 -0.3974
 5210TIP3    H141741   3.108   4.874   1.419 -1.4328  0.3221 -0.5751
 5210TIP3    H241742   3.158   4.924   1.553  0.0154  0.0315 -0.9911
 5211TIP3   OH241743   0.009   7.245   7.480  0.3815  0.4723 -0.4138
 5211TIP3    H141744  -0.055   7.309   7.450 -0.2164  0.4656  0.8086
 5211TIP3    H241745  -0.042   7.167   7.500  0.7856  0.3871  0.3342
 5212TIP3   OH241746   1.574   7.378   7.385  0.2993 -0.1181 -0.3669
 5212TIP3    H141747   1.564   7.309   7.450 -0.6224  0.8973  0.5983
 5212TIP3    H241748   1.666   7.370   7.357  0.2225 -1.7169 -0.2983
 5213TIP3   OH241749   3.370   1.690   7.725  0.1692  0.4074  0.2076
 5213TIP3    H141750   3.359   1.784   7.739 -0.7312  0.3273  0.1092
 5213TIP3    H241751   3.290   1.663   7.680  0.6461 -0.3183 -0.2239
 5214TIP3   OH241752   0.144   0.036   7.479 -0.2162  0.2796 -0.1807
 5214TIP3    H141753   0.082   0.079   7.421 -0.9442  0.3346  0.6070
 5214TIP3    H241754   0.132   0.081   7.563  0.6689  0.0736  0.0634
 5215TIP3   OH241755   1.666   7.772   5.778 -0.5290  0.5208  0.6843
 5215TIP3    H141756   1.710   7.730   5.703 -0.5991  0.1811  0.8324
 5215TIP3    H241757   1.694   7.864   5.773  0.0045  0.3620  0.6289
 5216TIP3   OH241758   7.647   0.469   7.710  0.2145 -0.3984 -0.0289
 5216TIP3    H141759   7.661   0.564   7.711  1.1784 -0.5303  1.0181
 5216TIP3    H241760   7.734   0.433   7.694 -0.1869 -1.1221 -0.6692
 5217TIP3   OH241761   6.445   6.047   7.753  0.1578  0.1127 -0.2416
 5217TIP3    H141762   6.455   6.143   7.750 -0.7227  0.3967  2.8072
 5217TIP3    H241763   6.383   6.028   7.683  0.3125  1.7619 -0.8905
 5218TIP3   OH241764   0.062   1.651   0.240 -0.0828 -0.4800 -0.2929
 5218TIP3    H141765   0.078   1.616   0.327  1.8521  1.0807  0.0489
 5218TIP3    H241766  -0.012   1.711   0.251  0.0157 -0.4557  0.2545
 5219TIP3   OH241767   7.244   3.148   6.021 -0.2099  0.3297 -0.1134
 5219TIP3    H141768   7.267   3.066   5.977 -0.4413 -0.5042  1.2489
 5219TIP3    H241769   7.324   3.200   6.020 -0.0212  0.0325 -0.8681
 5220TIP3   OH241770   7.145   6.147   1.840  0.7441 -0.8732 -0.0008
 5220TIP3    H141771   7.216   6.087   1.863  2.1617  1.6994  2.9761
 5220TIP3    H241772   7.097   6.160   1.922  0.1049  1.5055 -0.6841
 5221TIP3   OH241773   6.131   2.971   6.758 -0.4659  0.1262 -0.1363
 5221TIP3    H141774   6.172   3.037   6.814 -0.2986 -0.4539  0.4310
 5221TIP3    H241775   6.038   2.994   6.758 -0.5895 -0.3014  1.0002
 5222TIP3   OH241776   5.863   7.787   6.131  0.2252 -0.3260  0.0066
 5222TIP3    H141777   5.769   7.782   6.147  0.1145 -0.2521 -0.5754
 5222TIP3    H241778   5.903   7.735   6.201 -0.3077 -1.1582 -0.2882
 5223TIP3   OH241779   1.601   1.936   7.732  0.0921 -0.1420  0.1046
 5223TIP3    H141780   1.523   1.960   7.682 -0.7524  0.0283  1.4733
 5223TIP3    H241781   1.656   1.889   7.669 -2.3580 -2.8567 -0.1672
 5224TIP3   OH241782   7.917   5.868   0.214  0.4416  0.0260  0.0346
 5224TIP3    H141783   7.989   5.827   0.166  1.2713  0.9423  0.4621
 5224TIP3    H241784   7.943   5.864   0.306  0.9776  2.2152  0.0409
 5225TIP3   OH241785   5.512   0.229   7.278  0.3763 -0.0803 -0.5257
 5225TIP3    H141786   5.592   0.274   7.306  0.9691 -0.8910 -0.8923
 5225TIP3    H241787   5.448   0.252   7.345  0.3132  2.2329 -1.2802
 5226TIP3   OH241788   5.754   4.340   7.886  0.2107  0.4069 -0.0081
 5226TIP3    H141789   5.731   4.345   7.979  0.5009 -1.3959  0.1837
 5226TIP3    H241790   5.756   4.247   7.866  2.0535  0.6697 -1.3495
 5227TIP3   OH241791   7.192   4.427   0.052  0.2694  0.4824 -0.1305
 5227TIP3    H141792   7.274   4.474   0.067  0.0735  0.8815 -0.2858
 5227TIP3    H241793   7.214   4.335   0.066  0.5248  0.6663  0.7632
 5228TIP3   OH241794   5.740   4.202   6.796  0.1309 -0.1038 -0.2869
 5228TIP3    H141795   5.767   4.134   6.858 -0.0175  1.7021  1.8803
 5228TIP3    H241796   5.807   4.199   6.727  0.8110 -1.5986  0.3901
 5229TIP3   OH241797   7.820   4.141   5.735 -0.2194  0.1660 -0.0295
 5229TIP3    H141798   7.877   4.081   5.687 -0.0275 -0.7054  1.2446
 5229TIP3    H241799   7.732   4.105   5.723 -0.8953  2.4473 -3.4432
 5230TIP3   OH241800   6.171   0.390   0.319  0.3498  0.2582 -0.3042
 5230TIP3    H141801   6.131   0.457   0.375 -0.0853  0.9119 -1.3404
 5230TIP3    H241802   6.121   0.311   0.337 -0.0299  0.5532 -0.0397
 5231TIP3   OH241803   0.155   4.839   6.550 -0.5398  0.1070  0.6040
 5231TIP3    H141804   0.076   4.881   6.584 -1.1107 -0.7901  0.3895
 5231TIP3    H241805   0.126   4.755   6.516  0.3670  0.1272 -0.2712
 5232TIP3   OH241806   5.975   4.209   6.645 -0.4219 -0.1571  0.2382
 5232TIP3    H141807   5.993   4.298   6.613 -0.3402 -0.0585  0.5527
 5232TIP3    H241808   6.036   4.154   6.597  0.0231  0.0505  0.5537
 5233TIP3   OH241809   1.870   4.131   0.796  0.1737 -0.3315  0.4539
 5233TIP3    H141810   1.903   4.054   0.843 -0.2366 -0.6440  0.2343
 5233TIP3    H241811   1.815   4.176   0.861 -0.9083 -1.1029  0.1047
 5234TIP3   OH241812   1.768   2.231   1.026  0.1037  0.1834 -0.2167
 5234TIP3    H141813   1.694   2.187   0.984  0.6290 -0.7127 -0.2301
 5234TIP3    H241814   1.813   2.162   1.075  0.0526  1.0178  1.0686
 5235TIP3   OH241815   4.209   0.450   0.501  0.2905 -0.5134 -0.2046
 5235TIP3    H141816   4.180   0.386   0.566 -1.5180 -0.4016 -0.8543
 5235TIP3    H241817   4.266   0.509   0.551 -0.3147 -0.9545  1.0674
 5236TIP3   OH241818   7.947   0.080   1.920  0.0374 -0.3800  0.0893
 5236TIP3    H141819   8.016   0.039   1.972  0.6159 -1.7098 -1.6243
 5236TIP3    H241820   7.866   0.059   1.966  0.5719 -0.9020  0.8170
 5237TIP3   OH241821   2.200   7.076   0.894 -0.1104  0.5106  0.0894
 5237TIP3    H141822   2.116   7.111   0.925  0.5647  1.0616  1.3250
 5237TIP3    H241823   2.258   7.151   0.892  0.4853  0.0499 -0.3700
 5238TIP3   OH241824   4.374   6.337   1.268 -0.2018  0.2085  0.1171
 5238TIP3    H141825   4.389   6.314   1.177  1.9064  0.2266  0.4191
 5238TIP3    H241826   4.456   6.375   1.298 -0.5167 -0.6151  2.2783
 5239TIP3   OH241827   1.247   1.944   7.054 -0.2720  0.3164 -0.2733
 5239TIP3    H141828   1.190   2.004   7.006 -1.4591 -2.1771 -2.1479
 5239TIP3    H241829   1.204   1.933   7.139 -1.3116  0.3112 -0.7844
 5240TIP3   OH241830   3.670   2.518   7.072  0.2523  0.0764  0.0329
 5240TIP3    H141831   3.644   2.444   7.017  0.3170 -0.6854  0.9904
 5240TIP3    H241832   3.745   2.484   7.122  1.6127  1.4625 -0.9850
 5241TIP3   OH241833   3.077   4.611   1.574 -0.2757  0.2020  0.0864
 5241TIP3    H141834   3.072   4.703   1.550  2.4903  0.7804  1.2882
 5241TIP3    H241835   3.075   4.611   1.670 -1.4503 -1.1390  0.0982
 5242TIP3   OH241836   5.582   4.658   7.560  0.3685 -0.2831 -0.1169
 5242TIP3    H141837   5.600   4.602   7.634  1.7192  0.0663 -0.1511
 5242TIP3    H241838   5.634   4.621   7.488  0.0683  0.1086 -0.5442
 5243TIP3   OH241839   3.300   6.667   6.922  0.5713  0.3728 -0.0232
 5243TIP3    H141840   3.253   6.610   6.862  0.5120  0.9935 -0.5709
 5243TIP3    H241841   3.306   6.751   6.877  0.9527  0.7101  0.6334
 5244TIP3   OH241842   6.241   2.449   0.222  0.1950 -0.1395 -0.2723
 5244TIP3    H141843   6.158   2.420   0.260 -0.1996 -0.1272 -1.0991
 5244TIP3    H241844   6.227   2.541   0.202  1.0465  0.3503  1.2704
 5245TIP3   OH241845   3.723   3.559   0.414  0.4062  0.5975  0.1152
 5245TIP3    H141846   3.741   3.478   0.365  1.2018  1.1667 -0.5591
 5245TIP3    H241847   3.642   3.592   0.375  0.8812  0.8959 -0.6508
 5246TIP3   OH241848   5.411   6.947   0.469  0.0457  1.0887  0.4889
 5246TIP3    H141849   5.327   6.917   0.435 -0.3310  1.1102  1.3604
 5246TIP3    H241850   5.416   7.039   0.444 -1.1259  1.6438  2.1253
 5247TIP3   OH241851   5.897   7.349   1.509  0.0909  0.7051  0.3434
 5247TIP3    H141852   5.864   7.415   1.448  1.6414  2.0023  0.8330
 5247TIP3    H241853   5.981   7.323   1.472  0.4032  0.4694  1.2059
 5248TIP3   OH241854   2.137   2.319   7.080  0.1129  0.2745  0.6449
 5248TIP3    H141855   2.195   2.339   7.007 -1.3022  1.0997 -0.2976
 5248TIP3    H241856   2.090   2.400   7.097 -0.7886 -0.3737  1.3727
 5249TIP3   OH241857   4.268   3.614   6.834  0.0799  0.0537 -0.1788
 5249TIP3    H141858   4.349   3.636   6.878 -0.0264  3.5325 -1.4208
 5249TIP3    H241859   4.293   3.552   6.765  1.1758 -0.9323  1.0752
 5250TIP3   OH241860   1.026   0.799   6.232 -0.1871  0.1906 -0.3937
 5250TIP3    H141861   1.036   0.740   6.158  1.1344 -0.1497  0.0327
 5250TIP3    H241862   1.115   0.824   6.256 -0.4898 -0.6279  1.8143
 5251TIP3   OH241863   3.046   7.450   0.136 -0.1570  0.2309  0.5267
 5251TIP3    H141864   3.100   7.528   0.120  0.9472 -0.6743 -0.3551
 5251TIP3    H241865   2.985   7.448   0.062  0.6616 -0.4093 -0.1571
 5252TIP3   OH241866   2.446   1.211   5.718 -0.3326 -0.3742 -0.0539
 5252TIP3    H141867   2.388   1.246   5.650 -0.3117 -0.2936 -0.0302
 5252TIP3    H241868   2.388   1.192   5.791 -0.2447  0.2814  0.1932
 5253TIP3   OH241869   4.823   2.276   7.662  0.0867  0.2142 -0.0512
 5253TIP3    H141870   4.861   2.345   7.717 -0.1389 -0.9775  1.6823
 5253TIP3    H241871   4.781   2.323   7.590 -1.0445  1.9930  1.6621
 5254TIP3   OH241872   4.162   6.082   0.050  0.3306  0.2476 -0.4753
 5254TIP3    H141873   4.253   6.078   0.078 -0.0714  1.1913  1.1049
 5254TIP3    H241874   4.166   6.092  -0.045  1.9016  1.2902 -0.3228
 5255TIP3   OH241875   0.127   4.858   1.617  0.1549 -0.3291  0.1841
 5255TIP3    H141876   0.110   4.821   1.704  1.7093  0.0615  0.6952
 5255TIP3    H241877   0.176   4.789   1.572  0.9638  0.1623  0.2920
 5256TIP3   OH241878   1.237   7.112   1.575 -0.1745  0.0463 -0.5403
 5256TIP3    H141879   1.219   7.040   1.635  2.0998 -2.0332 -2.1608
 5256TIP3    H241880   1.268   7.183   1.632 -1.7740 -0.4360  1.0350
 5257TIP3   OH241881   5.432   3.567   7.820  0.3973  0.1697 -0.1632
 5257TIP3    H141882   5.526   3.579   7.825  0.3318  0.6333  0.0225
 5257TIP3    H241883   5.399   3.648   7.781 -0.2774  1.6740  3.1423
 5258TIP3   OH241884   5.608   0.768   1.147  0.7773  0.2111  0.0280
 5258TIP3    H141885   5.622   0.857   1.178  1.8104 -0.4560  1.6318
 5258TIP3    H241886   5.531   0.773   1.090  1.4518  2.2882 -0.7758
 5259TIP3   OH241887   0.546   5.567   6.031 -0.0131 -0.3554  0.1086
 5259TIP3    H141888   0.476   5.604   5.977  0.8704 -0.4240 -1.1277
 5259TIP3    H241889   0.626   5.587   5.982  0.6496 -2.1825  0.3927
 5260TIP3   OH241890   7.373   1.602   2.518 -0.3265  0.8338  0.0541
 5260TIP3    H141891   7.450   1.549   2.499 -0.2188  0.6392  0.9982
 5260TIP3    H241892   7.398   1.691   2.492  0.3636  0.8395  0.7107
 5261TIP3   OH241893   3.295   3.514   1.288  0.0392 -0.2970  0.6742
 5261TIP3    H141894   3.276   3.421   1.302  0.5035 -0.4978 -0.0108
 5261TIP3    H241895   3.216   3.548   1.246  0.0365 -0.4754  0.5340
 5262TIP3   OH241896   1.821   0.417   1.048 -0.2039  0.0729 -0.3035
 5262TIP3    H141897   1.725   0.414   1.051 -0.2470  1.3667  0.2941
 5262TIP3    H241898   1.841   0.485   0.984  0.3070  0.2327  0.0161
 5263TIP3   OH241899   4.254   7.984   1.661 -0.3666  0.0230  0.0668
 5263TIP3    H141900   4.303   8.061   1.690  0.2286  0.3024 -1.5804
 5263TIP3    H241901   4.167   8.019   1.639 -0.4435  0.0190  0.3573
 5264TIP3   OH241902   3.209   4.358   6.195  0.1998 -0.2227  0.4428
 5264TIP3    H141903   3.242   4.280   6.238 -0.5502 -2.2579 -2.4358
 5264TIP3    H241904   3.113   4.351   6.202  0.0501 -0.6493 -1.4718
 5265TIP3   OH241905   6.828   7.807   1.437  0.4353  0.3754  0.0269
 5265TIP3    H141906   6.769   7.859   1.382  1.2306  0.0399 -1.1920
 5265TIP3    H241907   6.911   7.853   1.432  0.9188 -0.5139 -0.3432
 5266TIP3   OH241908   3.643   4.945   0.640  0.1882  0.4289  0.8781
 5266TIP3    H141909   3.698   4.870   0.663  0.7042  1.0331  1.6663
 5266TIP3    H241910   3.704   5.019   0.635 -0.0953  0.5890 -1.1678
 5267TIP3   OH241911   2.657   0.097   1.347 -0.1149 -0.1325  0.2904
 5267TIP3    H141912   2.618   0.117   1.262 -0.3490 -3.8615 -0.6590
 5267TIP3    H241913   2.595   0.036   1.387  1.2315 -0.4258  2.0150
 5268TIP3   OH241914   2.661   3.395   7.066 -0.2350 -0.0967 -0.0354
 5268TIP3    H141915   2.756   3.400   7.070 -0.1752 -0.9560 -0.1524
 5268TIP3    H241916   2.643   3.362   6.978 -0.5839 -1.0593  0.3876
 5269TIP3   OH241917   1.884   6.969   5.888 -0.5829  0.2811 -0.1908
 5269TIP3    H141918   1.959   6.989   5.832  0.5847  1.3025  1.6420
 5269TIP3    H241919   1.922   6.925   5.964 -1.7826  1.1087  0.9277
 5270TIP3   OH241920   2.857   4.445   0.572 -0.1346  1.3089  0.2721
 5270TIP3    H141921   2.853   4.505   0.497  0.0389  2.1694  0.9371
 5270TIP3    H241922   2.837   4.359   0.534 -0.0850  1.7275 -0.7549
 5271TIP3   OH241923   7.256   1.369   2.255 -0.1747 -0.6526  0.2972
 5271TIP3    H141924   7.272   1.387   2.163  0.3430 -0.6111  0.3876
 5271TIP3    H241925   7.299   1.285   2.271  1.8307  0.4189  1.0263
 5272TIP3   OH241926   1.010   2.228   6.610 -0.2755  0.7648 -0.2891
 5272TIP3    H141927   0.976   2.171   6.679 -1.8361  1.2911 -0.5656
 5272TIP3    H241928   1.080   2.177   6.569 -1.9654 -1.2406 -0.8902
 5273TIP3   OH241929   0.064   5.867   1.153  0.8245  0.0609  0.8958
 5273TIP3    H141930   0.115   5.846   1.075  2.6519  1.2112  1.7172
 5273TIP3    H241931   0.001   5.795   1.160  1.2274 -0.5656 -1.0788
 5274TIP3   OH241932   5.314   2.828   0.645 -0.3249 -0.3299  0.6196
 5274TIP3    H141933   5.356   2.913   0.629  1.4335 -1.3499 -0.4754
 5274TIP3    H241934   5.267   2.809   0.565 -2.7478  0.6322  1.7092
 5275TIP3   OH241935   6.905   5.062   7.936 -0.1895 -0.2872 -0.4036
 5275TIP3    H141936   6.824   5.049   7.886 -1.0712  1.4150  0.5150
 5275TIP3    H241937   6.879   5.114   8.012  2.1569  2.5174 -1.3412
 5276TIP3   OH241938   1.662   0.308   0.007 -0.1169  0.5670 -0.7749
 5276TIP3    H141939   1.751   0.326   0.036 -0.5498  2.0506 -0.2924
 5276TIP3    H241940   1.632   0.236   0.063  0.1658  1.2738  0.3070
 5277TIP3   OH241941   4.901   0.287   0.705  0.9076 -0.0830  0.1891
 5277TIP3    H141942   4.868   0.264   0.619  0.3961  1.7328 -0.1366
 5277TIP3    H241943   4.990   0.319   0.688  0.9658 -0.1335  0.3988
 5278TIP3   OH241944   6.808   1.349   0.197  0.4108 -0.0933 -0.2143
 5278TIP3    H141945   6.829   1.379   0.285  0.1429  1.0512 -0.5248
 5278TIP3    H241946   6.820   1.426   0.142  0.1459 -0.6818 -1.1156
 5279TIP3   OH241947   2.125   7.125   6.941  0.3180 -0.1224  0.1349
 5279TIP3    H141948   2.220   7.133   6.933  0.2474  0.8183  0.2167
 5279TIP3    H241949   2.090   7.158   6.858 -0.0112  1.3708  0.8394
 5280TIP3   OH241950   7.624   5.584   7.334  0.9747  0.3758 -0.0103
 5280TIP3    H141951   7.637   5.490   7.322 -1.3422  0.0011 -0.0579
 5280TIP3    H241952   7.660   5.602   7.421  1.4708 -0.5452 -0.0166
 5281TIP3   OH241953   7.748   4.324   6.117 -0.0353 -0.0971 -0.1330
 5281TIP3    H141954   7.774   4.350   6.029  0.2163 -2.0302 -0.6816
 5281TIP3    H241955   7.717   4.233   6.107 -0.8636 -0.0503  1.6127
 5282TIP3   OH241956   5.925   4.623   1.621  0.3624 -0.0783  0.2594
 5282TIP3    H141957   5.858   4.613   1.554 -0.4101 -1.4142  1.1764
 5282TIP3    H241958   5.971   4.704   1.598 -1.3547  0.7042 -0.5826
 5283TIP3   OH241959   7.114   5.559   0.497  0.6424  0.3899  0.2186
 5283TIP3    H141960   7.195   5.529   0.456  0.3200 -0.6594  0.3203
 5283TIP3    H241961   7.050   5.561   0.425  0.4327 -0.0786  0.3878
 5284TIP3   OH241962   5.032   7.943   0.383 -0.2669  0.2075  0.2064
 5284TIP3    H141963   4.940   7.918   0.387 -0.1237 -0.4495 -0.4181
 5284TIP3    H241964   5.038   8.023   0.436 -1.9348  2.3851 -2.5628
 5285TIP3   OH241965   3.814   5.801   1.215 -0.0691  0.0499 -0.7192
 5285TIP3    H141966   3.886   5.858   1.241 -1.0007  1.8608 -1.9111
 5285TIP3    H241967   3.830   5.784   1.121 -0.7552 -0.2207 -0.7921
 5286TIP3   OH241968   6.317   0.134   6.919  0.2567 -0.8489 -0.1613
 5286TIP3    H141969   6.363   0.192   6.858 -0.7774  1.3741  1.0690
 5286TIP3    H241970   6.377   0.126   6.994  0.0666 -0.7123  0.0060
 5287TIP3   OH241971   8.023   3.895   6.110  0.0541 -0.9063 -0.6147
 5287TIP3    H141972   8.048   3.952   6.038  1.1830 -0.6776 -0.0668
 5287TIP3    H241973   7.929   3.907   6.119  0.2823  0.9654 -0.4241
 5288TIP3   OH241974   5.761   4.736   0.204 -0.4388 -0.1497  0.0749
 5288TIP3    H141975   5.799   4.702   0.123 -0.7267 -3.0576  1.0598
 5288TIP3    H241976   5.822   4.708   0.272 -1.2781  0.4030  1.0787
 5289TIP3   OH241977   2.684   5.309   6.718 -0.0414  0.0185 -0.3163
 5289TIP3    H141978   2.686   5.370   6.644 -1.6577 -0.4008 -0.7481
 5289TIP3    H241979   2.682   5.364   6.796 -2.1697  0.5699 -0.7214
 5290TIP3   OH241980   1.473   4.116   1.671  0.4574  0.3000  0.1696
 5290TIP3    H141981   1.432   4.046   1.621  0.8068 -1.4430  2.1650
 5290TIP3    H241982   1.409   4.137   1.740  0.7130  1.3584  0.1071
 5291TIP3   OH241983   6.410   0.412   7.325 -0.3185 -0.0663  0.2062
 5291TIP3    H141984   6.347   0.393   7.394 -1.1215 -0.3042 -0.5708
 5291TIP3    H241985   6.495   0.416   7.369 -0.8868  0.3638  1.2849
 5292TIP3   OH241986   0.532   2.737   6.136 -0.2434  0.2036  0.1864
 5292TIP3    H141987   0.547   2.831   6.141 -0.0044  0.1217  1.5357
 5292TIP3    H241988   0.438   2.729   6.117 -0.3763  0.7251  0.5859
 5293TIP3   OH241989   6.727   7.074   1.087 -0.3815 -0.3892  0.4804
 5293TIP3    H141990   6.772   6.989   1.090  1.2147  0.4398  0.7695
 5293TIP3    H241991   6.791   7.134   1.050 -1.3223  0.8080  0.7486
 5294TIP3   OH241992   2.387   4.577   2.190  0.1849  0.0438  0.0519
 5294TIP3    H141993   2.299   4.591   2.225  0.4309 -0.7056  1.0351
 5294TIP3    H241994   2.445   4.608   2.260  0.6937 -0.9061  0.0721
 5295TIP3   OH241995   7.024   0.741   0.159  0.3428  0.5281 -0.5228
 5295TIP3    H141996   7.013   0.653   0.196  2.6387  1.0142  1.5604
 5295TIP3    H241997   7.119   0.752   0.152  0.0762  2.4737 -1.7691
 5296TIP3   OH241998   3.619   0.115   5.966  0.6336 -0.0120  0.3760
 5296TIP3    H141999   3.644   0.111   5.873 -0.4274  1.6742 -0.0193
 5296TIP3    H242000   3.567   0.035   5.979  0.9959 -0.3931 -0.3958
 5297TIP3   OH242001   4.952   4.951   7.696  0.1425 -0.3318 -0.1055
 5297TIP3    H142002   4.935   5.045   7.690 -1.5740 -0.6094 -0.1226
 5297TIP3    H242003   4.924   4.916   7.612  2.7621 -0.6401 -0.9380
 5298TIP3   OH242004   1.045   7.479   7.853 -0.0543  0.4030 -0.5628
 5298TIP3    H142005   1.140   7.471   7.864 -0.1593 -0.9957 -0.4433
 5298TIP3    H242006   1.027   7.572   7.864  1.2180  0.5853  0.1757
 5299TIP3   OH242007   4.681   5.463   1.162 -0.4782  0.1117 -0.7229
 5299TIP3    H142008   4.673   5.471   1.257  2.2780 -0.4883 -0.3608
 5299TIP3    H242009   4.730   5.542   1.135  1.0033 -0.9345 -1.2298
 5300TIP3   OH242010   5.683   6.446   6.750  0.2633  0.0725 -0.0077
 5300TIP3    H142011   5.726   6.418   6.670  0.8840 -1.4571  0.8154
 5300TIP3    H242012   5.724   6.394   6.819 -2.4187 -1.0084  0.9269
 5301TIP3   OH242013   5.111   5.398   5.810 -0.0734  0.8170 -0.1932
 5301TIP3    H142014   5.039   5.459   5.796 -1.2778 -0.3624  0.6601
 5301TIP3    H242015   5.135   5.368   5.722 -0.7464  1.0860 -0.4714
 5302TIP3   OH242016   6.506   4.163   7.305  0.5809  0.0699 -0.2672
 5302TIP3    H142017   6.460   4.085   7.332  3.4617 -1.9861 -0.8026
 5302TIP3    H242018   6.448   4.205   7.241 -1.7448 -0.6468  1.2692
 5303TIP3   OH242019   6.187   3.494   0.678  0.0638  0.5496 -0.3137
 5303TIP3    H142020   6.186   3.424   0.744  0.8775 -1.3665 -2.2343
 5303TIP3    H242021   6.096   3.499   0.648  0.0256  0.2435 -0.2550
 5304TIP3   OH242022   2.092   3.868   2.769 -0.3007  0.6072  0.1892
 5304TIP3    H142023   2.028   3.872   2.698 -0.5164 -0.9590  0.2475
 5304TIP3    H242024   2.175   3.849   2.724 -0.7391 -2.2791  0.3925
 5305TIP3   OH242025   7.286   6.136   0.955 -0.6400  0.2143 -0.1383
 5305TIP3    H142026   7.281   6.079   0.878 -1.1851  3.1584 -2.4260
 5305TIP3    H242027   7.379   6.137   0.977 -0.4637 -0.6402 -0.7741
 5306TIP3   OH242028   6.358   2.888   0.693 -0.0521 -0.2127  0.1805
 5306TIP3    H142029   6.328   2.837   0.768 -2.5560 -0.4067 -0.8477
 5306TIP3    H242030   6.409   2.826   0.640  0.6808 -0.4009  1.0874
 5307TIP3   OH242031   5.887   6.159   0.785 -0.0210  0.6899  0.0347
 5307TIP3    H142032   5.815   6.192   0.840  0.5809  0.1457  1.2010
 5307TIP3    H242033   5.960   6.149   0.846  0.1681 -1.6367 -0.4799
 5308TIP3   OH242034   6.219   6.358   0.380  0.2009 -0.0853 -0.3124
 5308TIP3    H142035   6.208   6.353   0.475  1.5160  2.3691  0.0398
 5308TIP3    H242036   6.297   6.411   0.367 -1.3067  1.7486 -2.7669
 5309TIP3   OH242037   5.963   2.637   1.234 -0.0043  0.1579  0.1339
 5309TIP3    H142038   6.048   2.599   1.215 -0.9136 -2.2287  0.4752
 5309TIP3    H242039   5.905   2.603   1.166 -0.9717  0.5292  0.7447
 5310TIP3   OH242040   3.051   6.202   0.132  0.0965 -0.3571  0.0351
 5310TIP3    H142041   3.095   6.119   0.152  0.7080 -0.1460 -0.4357
 5310TIP3    H242042   3.002   6.184   0.052  1.4932  0.1719 -0.9771
 5311TIP3   OH242043   6.381   3.324   0.540 -0.1421 -0.1138 -0.1466
 5311TIP3    H142044   6.309   3.373   0.580 -0.6391 -0.3474 -0.7408
 5311TIP3    H242045   6.340   3.277   0.467  0.6776  0.0470 -0.7218
 5312TIP3   OH242046   0.448   4.013   1.286 -0.0065 -0.3555 -0.1734
 5312TIP3    H142047   0.396   3.937   1.259  0.5475 -1.0954  0.7742
 5312TIP3    H242048   0.461   4.001   1.380  0.3477  0.7646 -0.0660
 5313TIP3   OH242049   7.640   5.553   6.339  0.6180 -0.2395  0.3371
 5313TIP3    H142050   7.656   5.476   6.394  0.0698 -0.1421  0.6372
 5313TIP3    H242051   7.586   5.610   6.393 -1.3616 -0.8572 -0.8643
 5314TIP3   OH242052   6.245   4.295   2.299  0.5849  0.0846  0.2689
 5314TIP3    H142053   6.194   4.365   2.341 -0.2100 -1.3409  1.8121
 5314TIP3    H242054   6.334   4.309   2.329  0.3841  0.2843  0.7908
 5315TIP3   OH242055   6.416   2.540   1.237  0.7184  0.1282 -0.0845
 5315TIP3    H142056   6.430   2.453   1.276 -0.4748  0.6668  1.6570
 5315TIP3    H242057   6.370   2.589   1.305 -0.5869  1.4521 -1.8440
 5316TIP3   OH242058   2.660   2.810   1.421  0.3662  0.3134  0.2390
 5316TIP3    H142059   2.732   2.795   1.360  2.5211 -0.0585  2.6965
 5316TIP3    H242060   2.613   2.727   1.424  1.0427 -0.0831  0.0426
 5317TIP3   OH242061   1.289   5.213   6.910 -0.1419 -0.0698 -0.2478
 5317TIP3    H142062   1.344   5.256   6.975  2.4476 -1.2496 -1.5107
 5317TIP3    H242063   1.350   5.177   6.846 -2.4054 -1.5246 -1.7700
 5318TIP3   OH242064   7.570   5.020   0.899  0.7256  0.6071 -0.0034
 5318TIP3    H142065   7.542   4.969   0.822  0.8731 -0.9568  0.9430
 5318TIP3    H242066   7.640   5.076   0.865  2.2607 -1.5355 -0.6524
 5319TIP3   OH242067   3.869   4.976   0.326  0.4675  0.1019  0.0801
 5319TIP3    H142068   3.914   4.893   0.338  0.8352  0.3611  0.4943
 5319TIP3    H242069   3.794   4.954   0.270  0.6512 -0.4742  0.0524
 5320TIP3   OH242070   3.663   7.867   0.684 -0.0517  0.0069  0.1069
 5320TIP3    H142071   3.627   7.919   0.612  0.1971 -2.2211 -1.7232
 5320TIP3    H242072   3.745   7.830   0.649  1.2795  0.6559  2.3415
 5321TIP3   OH242073   7.545   4.108   0.214  0.3141 -0.4792 -0.2783
 5321TIP3    H142074   7.619   4.165   0.238  0.0499  0.8490 -2.4272
 5321TIP3    H242075   7.568   4.074   0.128 -0.3916 -2.2351  0.1893
 5322TIP3   OH242076   7.735   5.384   1.347 -0.0034  0.1785 -0.1531
 5322TIP3    H142077   7.827   5.359   1.359 -0.0329 -0.3827 -1.0377
 5322TIP3    H242078   7.724   5.389   1.252 -0.4441  1.9650 -0.0486
 5323TIP3   OH242079   2.181   4.668   6.571 -0.5657  0.2689 -0.1497
 5323TIP3    H142080   2.151   4.721   6.644 -1.2508 -1.4617  0.8843
 5323TIP3    H242081   2.235   4.727   6.518  0.3975  1.4296  2.0306
 5324TIP3   OH242082   6.175   6.731   1.784 -0.0565  0.1989 -0.1072
 5324TIP3    H142083   6.152   6.664   1.849 -0.8036  0.9475  0.4167
 5324TIP3    H242084   6.270   6.728   1.779  0.0238  0.2565  1.1683
 5325TIP3   OH242085   8.024   7.510   6.438  0.1670  0.1058  0.1076
 5325TIP3    H142086   7.936   7.535   6.464 -0.2393  0.4453 -1.5017
 5325TIP3    H242087   8.081   7.566   6.491 -0.6777  3.9996 -2.6449
 5326TIP3   OH242088   6.356   4.293   6.640 -0.1332 -0.3203 -0.0631
 5326TIP3    H142089   6.450   4.276   6.628 -0.2647 -0.2169 -1.3930
 5326TIP3    H242090   6.346   4.308   6.734  0.5784 -3.9704  0.7324
 5327TIP3   OH242091   4.145   0.922   6.741 -0.3304  0.2549 -0.3137
 5327TIP3    H142092   4.237   0.941   6.721 -0.6664  1.2679 -1.0279
 5327TIP3    H242093   4.108   0.892   6.657 -0.6030 -0.3854  0.0264
 5328TIP3   OH242094   6.401   7.334   7.188  0.5811  0.1229  0.4257
 5328TIP3    H142095   6.471   7.376   7.139 -0.7449  1.0701 -0.7214
 5328TIP3    H242096   6.399   7.381   7.272  2.1115 -0.7638  1.0130
 5329TIP3   OH242097   2.159   5.408   6.261  0.0506  0.0986  0.1636
 5329TIP3    H142098   2.098   5.426   6.333  0.4375 -1.8845  1.0707
 5329TIP3    H242099   2.104   5.403   6.183 -0.8055 -0.4799  0.7785
 5330TIP3   OH242100   0.461   3.937   0.138  0.2526 -0.1017 -0.3327
 5330TIP3    H142101   0.394   3.879   0.175 -0.4288  0.5888 -0.4635
 5330TIP3    H242102   0.437   3.945   0.046  0.5892  0.0463 -0.4082
 5331TIP3   OH242103   0.367   3.956   0.506  0.6480  0.1512 -0.3221
 5331TIP3    H142104   0.435   3.913   0.454  1.0906 -2.2569  2.0118
 5331TIP3    H242105   0.406   4.038   0.534  0.3043  1.6770 -3.7747
 5332TIP3   OH242106   6.942   3.058   0.438  0.4644 -0.3121  0.4814
 5332TIP3    H142107   6.984   3.085   0.357  1.9889 -0.0350  1.3295
 5332TIP3    H242108   6.931   2.963   0.429 -0.8638 -0.0895 -0.6735
 5333TIP3   OH242109   1.003   1.337   0.576  0.4205  0.5613  0.0072
 5333TIP3    H142110   0.930   1.300   0.627 -0.0045  2.3116  0.7530
 5333TIP3    H242111   1.076   1.277   0.592 -1.1799 -2.1353 -1.9988
 5334TIP3   OH242112   2.760   7.679   5.297 -0.6860  0.3551  0.3857
 5334TIP3    H142113   2.832   7.622   5.323 -1.0198 -0.2052  0.1031
 5334TIP3    H242114   2.793   7.768   5.311  0.4916  0.1514 -0.8709
 5335TIP3   OH242115   4.263   6.060   0.837  0.8479 -0.0521  0.1637
 5335TIP3    H142116   4.242   6.100   0.752 -0.7503  0.1042  0.5998
 5335TIP3    H242117   4.354   6.032   0.828  1.0174  0.8454 -1.2584
 5336TIP3   OH242118   2.188   5.359   0.568 -0.1522  0.1977  0.2431
 5336TIP3    H142119   2.177   5.385   0.660  3.2243  1.1166  0.5143
 5336TIP3    H242120   2.204   5.442   0.522 -1.9174 -0.2350 -1.2789
 5337TIP3   OH242121   7.699   4.689   6.616  0.2833  0.3894  0.3565
 5337TIP3    H142122   7.697   4.760   6.551  0.2796 -0.5468 -0.6955
 5337TIP3    H242123   7.791   4.682   6.640  0.3758  0.3493  0.0016
 5338TIP3   OH242124   7.655   6.106   6.776  0.0734 -0.3124  0.0329
 5338TIP3    H142125   7.562   6.107   6.800  0.1820  0.0731  0.4427
 5338TIP3    H242126   7.655   6.097   6.681 -0.4464  2.7415 -0.3446
 5339TIP3   OH242127   6.462   0.173   5.990  0.3958  0.3885  0.3609
 5339TIP3    H142128   6.462   0.083   6.020 -1.9764 -0.8615 -2.7527
 5339TIP3    H242129   6.485   0.168   5.897  1.7380  3.2196  0.4189
 5340TIP3   OH242130   4.241   3.666   0.728 -0.1571 -0.1947  0.0068
 5340TIP3    H142131   4.167   3.612   0.754 -2.6445  2.6713 -0.6341
 5340TIP3    H242132   4.244   3.659   0.633 -0.5209  0.7996 -0.0842
 5341TIP3   OH242133   1.440   5.323   0.021 -0.2115  0.3732  0.0381
 5341TIP3    H142134   1.468   5.409  -0.011 -0.4845 -0.3975 -2.4622
 5341TIP3    H242135   1.522   5.275   0.034 -0.1069  0.2697 -0.8912
 5342TIP3   OH242136   6.166   1.125   2.441  0.5196 -0.3046 -0.0568
 5342TIP3    H142137   6.241   1.131   2.382 -0.6052 -2.2239 -1.7878
 5342TIP3    H242138   6.191   1.179   2.516  2.0544  2.1761 -2.1862
 5343TIP3   OH242139   1.461   1.508   6.823 -0.1418  0.1434  0.5693
 5343TIP3    H142140   1.431   1.489   6.734  0.2085  0.7961  0.3097
 5343TIP3    H242141   1.442   1.600   6.837  0.9328  0.3650  0.7149
 5344TIP3   OH242142   5.617   3.870   7.857 -0.1710  0.3927 -0.3599
 5344TIP3    H142143   5.592   3.879   7.765 -1.7730  0.6560  0.0804
 5344TIP3    H242144   5.691   3.809   7.855  0.8568  1.6128 -1.9470
 5345TIP3   OH242145   0.310   2.916   1.071 -0.2359  0.5228  0.4135
 5345TIP3    H142146   0.252   2.863   1.017  0.7915 -0.9413  0.6795
 5345TIP3    H242147   0.254   2.986   1.104 -1.1175  0.9032 -1.7187
 5346TIP3   OH242148   5.091   5.462   5.341 -0.0957  0.6667  0.0597
 5346TIP3    H142149   5.002   5.435   5.316 -0.2093  0.9792  0.1223
 5346TIP3    H242150   5.130   5.383   5.379 -0.4777  0.6301  0.3790
 5347TIP3   OH242151   7.340   2.077   0.953 -0.2857 -0.1087  0.5771
 5347TIP3    H142152   7.345   1.995   0.906 -2.2588 -0.3512  0.7118
 5347TIP3    H242153   7.311   2.141   0.888  0.5366  0.3366  0.6373
 5348TIP3   OH242154   0.074   7.890   7.499 -0.5145 -0.4632 -0.3225
 5348TIP3    H142155  -0.010   7.873   7.457  0.4882  0.1245 -2.7061
 5348TIP3    H242156   0.080   7.986   7.501 -0.7916 -0.4387  1.8224
 5349TIP3   OH242157   7.973   6.973   1.112 -0.5566  0.6709 -0.0770
 5349TIP3    H142158   7.985   7.033   1.186 -0.5751  0.1641  0.3443
 5349TIP3    H242159   8.057   6.928   1.104 -0.3430  1.1816 -0.7832
 5350TIP3   OH242160   6.430   0.997   1.929  0.0728 -0.0857 -0.8582
 5350TIP3    H142161   6.500   1.057   1.954 -0.1207 -0.8218  1.7422
 5350TIP3    H242162   6.475   0.921   1.893  0.4822  0.2807 -1.1279
 5351TIP3   OH242163   5.556   0.334   1.634 -0.4053 -0.4523 -0.1326
 5351TIP3    H142164   5.462   0.326   1.645 -0.6336 -0.0815 -1.5774
 5351TIP3    H242165   5.578   0.270   1.566  0.6255 -1.5369  1.1702
 5352TIP3   OH242166   1.196   3.854   6.496 -0.4121  0.0829 -0.0440
 5352TIP3    H142167   1.103   3.842   6.513 -0.5596 -0.2879 -1.0768
 5352TIP3    H242168   1.237   3.776   6.532 -0.5098  0.1898  0.3027
 5353TIP3   OH242169   3.050   5.453   2.152 -0.1193 -0.3020  0.2123
 5353TIP3    H142170   3.070   5.448   2.245 -0.8918 -0.6913  0.3586
 5353TIP3    H242171   3.091   5.535   2.124  0.2784 -0.2759  0.8467
 5354TIP3   OH242172   0.492   1.434   0.959  0.0056  0.3372 -0.7626
 5354TIP3    H142173   0.441   1.473   1.030  0.8952  1.0099 -0.4765
 5354TIP3    H242174   0.579   1.421   0.997 -0.2416 -1.9877 -0.8306
 5355TIP3   OH242175   1.441   0.483   0.154  0.3437 -0.0433  0.0581
 5355TIP3    H142176   1.388   0.408   0.128 -0.1419  0.4210 -0.3207
 5355TIP3    H242177   1.467   0.524   0.072  0.9945 -0.0558  0.2499
 5356TIP3   OH242178   6.967   1.711   0.917 -0.2953 -0.1983  0.6608
 5356TIP3    H142179   7.002   1.699   1.005  3.1073 -1.1177 -0.6567
 5356TIP3    H242180   6.961   1.805   0.906  0.4502 -0.0391  1.4720
 5357TIP3   OH242181   6.799   0.775   6.431 -0.2889  0.6406 -0.0640
 5357TIP3    H142182   6.710   0.775   6.466 -0.3036 -0.3519 -0.0918
 5357TIP3    H242183   6.821   0.868   6.424 -1.4734  0.9080 -0.4529
 5358TIP3   OH242184   0.759   5.047   1.377 -0.1644  0.5775  0.3004
 5358TIP3    H142185   0.676   5.090   1.357  0.3812  1.3340 -0.3907
 5358TIP3    H242186   0.807   5.048   1.295  0.4562 -0.0309  0.6498
 5359TIP3   OH242187   7.529   3.841   7.183  0.1539 -0.4271 -0.2295
 5359TIP3    H142188   7.447   3.823   7.138 -0.8810  0.7929  1.0752
 5359TIP3    H242189   7.516   3.927   7.223  1.5438 -0.8358  1.2041
 5360TIP3   OH242190   6.939   4.000   0.436 -0.2400 -0.4207 -0.4767
 5360TIP3    H142191   6.858   4.039   0.468 -1.9261 -4.4011  0.5961
 5360TIP3    H242192   6.920   3.977   0.345 -0.1059 -0.8863 -0.3857
 5361TIP3   OH242193   3.456   3.827   1.113 -0.4611 -0.0643 -0.6083
 5361TIP3    H142194   3.384   3.815   1.175 -0.8527  0.8736 -0.8637
 5361TIP3    H242195   3.440   3.913   1.075  1.5469  0.7431  0.2753
 5362TIP3   OH242196   1.073   4.522   7.606  0.0296 -0.0055 -0.0446
 5362TIP3    H142197   1.143   4.502   7.545 -0.4068 -1.0280 -0.2233
 5362TIP3    H242198   1.117   4.564   7.680  0.8050 -0.4845 -0.2242
 5363TIP3   OH242199   6.995   0.608   7.661 -0.2571 -0.2169  0.1275
 5363TIP3    H142200   7.050   0.591   7.585  0.5455  1.0320  0.3979
 5363TIP3    H242201   6.907   0.586   7.632  0.1322 -0.4618 -0.9220
 5364TIP3   OH242202   4.666   3.206   7.324 -0.6804 -0.0833  0.6846
 5364TIP3    H142203   4.755   3.195   7.288 -0.5484  0.0387  0.9758
 5364TIP3    H242204   4.634   3.116   7.336  0.0172 -0.1696  2.0989
 5365TIP3   OH242205   5.939   3.512   6.964 -0.1747 -0.0827 -0.3227
 5365TIP3    H142206   5.909   3.508   7.054  0.1736  0.7379 -0.1637
 5365TIP3    H242207   5.965   3.603   6.951 -0.0036 -0.2431 -1.1803
 5366TIP3   OH242208   2.463   2.058   6.524  0.2785 -0.3765 -0.3654
 5366TIP3    H142209   2.427   2.113   6.454 -0.6044  2.6982  2.2515
 5366TIP3    H242210   2.386   2.030   6.574  1.0174 -0.5825  0.6840
 5367TIP3   OH242211   4.458   2.648   6.511 -0.1368 -0.1283 -0.5373
 5367TIP3    H142212   4.387   2.588   6.534  0.4965  0.4146  3.6110
 5367TIP3    H242213   4.414   2.731   6.493 -0.6696 -0.4150 -0.5864
 5368TIP3   OH242214   6.848   2.865   1.940 -0.4467  0.0430  0.4574
 5368TIP3    H142215   6.926   2.873   1.995  0.2774 -0.7252 -0.4329
 5368TIP3    H242216   6.818   2.775   1.954 -0.8427  0.1626  0.3748
 5369TIP3   OH242217   2.083   7.480   6.457 -0.1112 -0.4145 -0.3168
 5369TIP3    H142218   2.164   7.456   6.503 -0.0115 -0.2042 -0.3813
 5369TIP3    H242219   2.062   7.567   6.491 -0.9858 -0.9699  0.6163
 5370TIP3   OH242220   3.059   2.271   7.498 -0.3435  0.1877 -0.3284
 5370TIP3    H142221   3.115   2.344   7.523 -0.1224 -0.1250  0.1061
 5370TIP3    H242222   3.102   2.233   7.421 -0.9972  1.1201 -1.1746
 5371TIP3   OH242223   2.222   3.365   0.449  0.0750 -0.2849  0.3301
 5371TIP3    H142224   2.291   3.425   0.479  2.0561 -2.2134 -0.1106
 5371TIP3    H242225   2.194   3.400   0.365  0.8758  0.2781  0.2903
 5372TIP3   OH242226   2.731   6.853   7.875 -0.0399  0.1824  0.2307
 5372TIP3    H142227   2.699   6.911   7.806  0.5977 -1.1129 -1.2241
 5372TIP3    H242228   2.660   6.849   7.939 -0.6272  1.4669 -0.3212
 5373TIP3   OH242229   5.155   2.574   7.594  0.0471 -0.4709  0.1135
 5373TIP3    H142230   5.137   2.546   7.504  0.2072 -0.7139  0.1541
 5373TIP3    H242231   5.111   2.509   7.648 -0.8201  0.1967  0.2156
 5374TIP3   OH242232   3.868   3.936   7.444 -0.3964 -0.1683  0.2826
 5374TIP3    H142233   3.792   3.987   7.414  0.4979  0.6809 -0.5978
 5374TIP3    H242234   3.880   3.869   7.377 -1.7574 -1.8249  1.5882
 5375TIP3   OH242235   6.748   1.600   0.703 -0.1764  0.1554  0.2110
 5375TIP3    H142236   6.698   1.545   0.763  1.1357 -1.9625 -0.5393
 5375TIP3    H242237   6.801   1.656   0.760 -0.2094 -0.6380  1.0352
 5376TIP3   OH242238   2.311   2.412   5.964  0.1230 -0.0354 -0.0818
 5376TIP3    H142239   2.401   2.389   5.940 -0.3701  0.0429 -2.1999
 5376TIP3    H242240   2.313   2.508   5.970  0.3546 -0.0834  0.7154
 5377TIP3   OH242241   6.233   5.404   7.323 -0.3997 -0.5777  0.2681
 5377TIP3    H142242   6.224   5.434   7.413  0.1230 -2.1321  0.8877
 5377TIP3    H242243   6.148   5.363   7.303 -0.7301  0.3027 -0.1823
 5378TIP3   OH242244   5.232   5.888   1.548 -0.3351  0.1310  0.7252
 5378TIP3    H142245   5.315   5.870   1.503  0.6415 -2.3722  3.2278
 5378TIP3    H242246   5.250   5.966   1.601  0.2918 -0.1346  0.9105
 5379TIP3   OH242247   5.481   5.586   7.211  0.1076 -0.0063  0.3583
 5379TIP3    H142248   5.522   5.570   7.296 -0.9664  0.4730  0.9868
 5379TIP3    H242249   5.427   5.508   7.196  0.0909  0.0282  0.2410
 5380TIP3   OH242250   7.131   7.164   2.433  0.2680 -0.1500 -0.3701
 5380TIP3    H142251   7.073   7.095   2.464  0.5051  0.6008  1.9105
 5380TIP3    H242252   7.199   7.118   2.383  0.6167 -1.6255  1.3814
 5381TIP3   OH242253   0.457   0.847   6.510 -0.1480  0.2376 -0.6658
 5381TIP3    H142254   0.487   0.756   6.501  1.3939  0.7565 -1.1254
 5381TIP3    H242255   0.411   0.864   6.428  1.8551  0.6447 -1.7779
 5382TIP3   OH242256   7.945   2.361   7.548  0.3065  0.0996  0.2815
 5382TIP3    H142257   7.869   2.418   7.554 -2.3981 -3.1201 -0.2038
 5382TIP3    H242258   7.983   2.362   7.636 -0.2281  1.8299  0.5229
 5383TIP3   OH242259   3.557   5.679   7.678 -0.1409  0.2731  0.3275
 5383TIP3    H142260   3.514   5.594   7.690  0.1523  0.0357 -0.2659
 5383TIP3    H242261   3.650   5.661   7.693 -0.0719  0.4728  0.1453
 5384TIP3   OH242262   5.233   6.715   1.581  0.5178  0.0943  0.2239
 5384TIP3    H142263   5.157   6.773   1.567  0.8052  0.3362 -0.3614
 5384TIP3    H242264   5.251   6.723   1.674 -0.3875 -0.2282  0.4381
 5385TIP3   OH242265   5.991   5.764   1.047  0.3168 -0.2717  0.2168
 5385TIP3    H142266   6.062   5.700   1.045  0.9209  0.4063 -2.3612
 5385TIP3    H242267   6.034   5.849   1.051 -0.3260  0.1340 -1.0125
 5386TIP3   OH242268   4.177   1.753   0.778 -0.2366  0.6276 -0.2901
 5386TIP3    H142269   4.128   1.780   0.700 -0.3713 -0.3326 -0.5590
 5386TIP3    H242270   4.233   1.827   0.798  0.4600  0.5729 -1.8443
 5387TIP3   OH242271   5.711   7.137   7.465 -0.1724 -0.0382  0.3745
 5387TIP3    H142272   5.639   7.093   7.420 -0.6618  0.8175  0.2986
 5387TIP3    H242273   5.781   7.140   7.399 -1.0156  1.5490 -0.5032
 5388TIP3   OH242274   6.237   5.263   0.916 -0.4091  0.3137  0.1836
 5388TIP3    H142275   6.288   5.310   0.850  0.3706 -0.6074  0.1123
 5388TIP3    H242276   6.302   5.218   0.970 -1.0354  0.8832  1.4731
 5389TIP3   OH242277   0.057   5.142   6.951  0.1478 -0.3931 -0.0379
 5389TIP3    H142278   0.027   5.071   6.895 -1.3466 -0.6455  1.0406
 5389TIP3    H242279   0.054   5.220   6.895  1.5760 -1.0955 -1.1554
 5390TIP3   OH242280   7.400   5.655   2.388 -0.2197  0.2760  0.0255
 5390TIP3    H142281   7.422   5.731   2.442  0.2612 -0.2185  0.5429
 5390TIP3    H242282   7.485   5.617   2.365 -0.4265  0.4111 -0.9904
 5391TIP3   OH242283   0.460   3.331   7.552 -0.2106  0.1422  0.1008
 5391TIP3    H142284   0.368   3.354   7.561 -0.4574 -0.7837 -0.0549
 5391TIP3    H242285   0.499   3.358   7.635 -0.6363  0.4171  0.2164
 5392TIP3   OH242286   2.202   4.793   5.845  0.1659 -0.1032 -0.1152
 5392TIP3    H142287   2.276   4.854   5.843  0.4073 -0.3873 -1.6520
 5392TIP3    H242288   2.144   4.823   5.775  0.3753 -1.6834 -1.0227
 5393TIP3   OH242289   5.319   5.536   6.172 -0.3329 -0.3846  0.5726
 5393TIP3    H142290   5.230   5.569   6.175 -0.0921  0.3226 -0.0215
 5393TIP3    H242291   5.309   5.442   6.153 -0.9548 -0.3797  0.8609
 5394TIP3   OH242292   5.435   4.850   5.669  0.3843 -0.1781  0.2085
 5394TIP3    H142293   5.407   4.801   5.592  1.6035  0.2784 -0.5528
 5394TIP3    H242294   5.412   4.941   5.650 -1.5654 -0.3489  1.4745
 5395TIP3   OH242295   5.053   7.568   0.654  0.6561  0.7024  0.2266
 5395TIP3    H142296   5.076   7.655   0.685  1.1938  0.2311  1.1923
 5395TIP3    H242297   5.088   7.508   0.720 -0.2121 -0.2207 -0.1176
 5396TIP3   OH242298   6.133   7.291   7.700 -0.4165  0.0368  0.2134
 5396TIP3    H142299   6.216   7.273   7.658  0.1770  1.3138  0.7739
 5396TIP3    H242300   6.153   7.293   7.794 -0.9657  0.7848  0.3291
 5397TIP3   OH242301   4.476   0.456   7.266 -0.1334 -0.7137  0.4283
 5397TIP3    H142302   4.421   0.400   7.211  1.7974 -0.8394 -1.4635
 5397TIP3    H242303   4.514   0.396   7.330 -0.3825 -1.0388  0.2771
 5398TIP3   OH242304   7.123   5.317   0.762 -0.2213 -0.0524  0.1303
 5398TIP3    H142305   7.193   5.264   0.727 -0.0965  0.6126 -0.6697
 5398TIP3    H242306   7.154   5.407   0.752 -0.8033  0.2092  0.6137
 5399TIP3   OH242307   6.539   0.328   6.816  0.2324 -0.6008  0.3024
 5399TIP3    H142308   6.575   0.240   6.813  0.6492 -0.4761  1.3332
 5399TIP3    H242309   6.508   0.339   6.906  2.2946  1.1082  0.9008
 5400TIP3   OH242310   3.134   7.518   1.555 -0.6655 -0.2086 -0.4588
 5400TIP3    H142311   3.215   7.496   1.601 -0.5314 -1.2582 -1.1545
 5400TIP3    H242312   3.152   7.602   1.512 -0.4504  0.2762  0.5620
 5401TIP3   OH242313   1.557   6.346   0.501 -0.8521  0.1413 -0.2654
 5401TIP3    H142314   1.529   6.325   0.590  0.2980  1.3618  0.4254
 5401TIP3    H242315   1.622   6.279   0.480 -1.8661 -0.7646 -0.6204
 5402TIP3   OH242316   4.799   4.388   0.316  0.3792  0.3607  0.3800
 5402TIP3    H142317   4.771   4.301   0.288 -1.1354  0.9796 -0.1728
 5402TIP3    H242318   4.837   4.375   0.402 -0.4416 -0.7651  0.5909
 5403TIP3   OH242319   4.935   7.033   0.426  0.5746 -0.0072  0.6606
 5403TIP3    H142320   4.869   7.044   0.495  0.0194 -0.0841  0.1474
 5403TIP3    H242321   4.886   7.041   0.344  1.3335  0.7251  0.2631
 5404TIP3   OH242322   7.785   3.926   7.100  0.1515  0.1214  0.0019
 5404TIP3    H142323   7.690   3.923   7.097  0.1962 -1.1160 -1.9381
 5404TIP3    H242324   7.808   3.890   7.186 -1.1115 -1.0874 -0.1281
 5405TIP3   OH242325   6.145   6.507   6.605 -0.3842 -0.4102 -0.5578
 5405TIP3    H142326   6.176   6.554   6.527  0.1737 -2.3061 -1.5485
 5405TIP3    H242327   6.090   6.437   6.570 -0.0451 -1.3696  0.7450
 5406TIP3   OH242328   0.168   3.786   0.573 -0.1339  0.1916 -0.0240
 5406TIP3    H142329   0.222   3.864   0.563 -1.2277  1.1964  1.5298
 5406TIP3    H242330   0.078   3.817   0.565 -0.5742 -1.1434 -0.6647
 5407TIP3   OH242331   6.163   4.560   1.337 -0.0805  0.6307  0.1957
 5407TIP3    H142332   6.176   4.482   1.391 -0.0611  1.2850  1.1395
 5407TIP3    H242333   6.212   4.629   1.381 -1.4162  1.5649  0.2585
 5408TIP3   OH242334   6.134   3.204   0.453  0.3077  0.4131 -0.0879
 5408TIP3    H142335   6.052   3.241   0.486 -0.1055  0.7451 -1.4311
 5408TIP3    H242336   6.124   3.109   0.465 -0.9699  0.3073 -1.6909
 5409TIP3   OH242337   1.055   0.064   7.056 -0.3784 -0.0844 -0.1903
 5409TIP3    H142338   1.022  -0.024   7.072 -2.2442  0.4320 -0.9386
 5409TIP3    H242339   1.065   0.102   7.143 -3.1046  0.1561  0.0886
 5410TIP3   OH242340   4.814   1.837   6.428 -0.0211 -0.4148 -0.3213
 5410TIP3    H142341   4.832   1.831   6.522 -1.4864 -0.1973  0.0082
 5410TIP3    H242342   4.770   1.922   6.417  3.9192  1.6597 -1.9416
 5411TIP3   OH242343   2.020   2.066   7.201 -0.4351  0.1248 -0.0025
 5411TIP3    H142344   1.947   2.111   7.244  0.8117  1.1623  1.1047
 5411TIP3    H242345   2.053   2.130   7.137  0.9336  0.5783  1.1199
 5412TIP3   OH242346   0.819   2.724   7.071  0.2937 -0.4677 -0.0225
 5412TIP3    H142347   0.906   2.756   7.045  1.3312 -1.5217  1.8469
 5412TIP3    H242348   0.807   2.644   7.021  0.3761 -0.2859 -0.3346
 5413TIP3   OH242349   4.681   6.952   7.878 -0.4666 -0.0116  0.4804
 5413TIP3    H142350   4.684   7.019   7.946 -0.9048  0.3085  0.1913
 5413TIP3    H242351   4.635   6.878   7.918  3.0022 -1.5865  2.0224
 5414TIP3   OH242352   5.470   0.880   1.447  0.1564  0.6503  0.1324
 5414TIP3    H142353   5.374   0.882   1.438 -0.1926 -0.3695  2.6784
 5414TIP3    H242354   5.495   0.973   1.453 -0.6922  0.9258 -0.3979
 5415TIP3   OH242355   5.064   5.932   7.761  0.1435  0.3191  0.0619
 5415TIP3    H142356   5.101   5.846   7.782 -1.4330  0.0603  2.1550
 5415TIP3    H242357   4.980   5.911   7.718  0.9610  0.8707 -1.9016
 5416TIP3   OH242358   4.010   5.061   1.062  0.0405  0.4218  0.0395
 5416TIP3    H142359   4.030   5.014   1.143 -2.5377 -1.8422 -0.5216
 5416TIP3    H242360   3.987   5.149   1.091  0.7460  0.1418  1.5624
 5417TIP3   OH242361   4.843   4.877   6.173 -0.3352  0.3817  0.1789
 5417TIP3    H142362   4.928   4.890   6.217  0.4429 -1.5020 -0.6463
 5417TIP3    H242363   4.846   4.936   6.098  0.7709 -0.4291 -0.4650
 5418TIP3   OH242364   8.092   1.229   7.899 -0.4173  0.8227 -0.0060
 5418TIP3    H142365   8.171   1.258   7.853 -0.2846 -0.6192 -0.7381
 5418TIP3    H242366   8.039   1.308   7.907  2.1565  2.5285  2.9105
 5419TIP3   OH242367   5.854   3.142   5.884 -0.2482 -0.4473 -0.0519
 5419TIP3    H142368   5.785   3.165   5.821 -0.1300  0.0598 -0.0055
 5419TIP3    H242369   5.913   3.084   5.835 -0.8622 -1.1288 -0.0024
 5420TIP3   OH242370   5.364   1.728   0.794  0.2816  0.0289  0.2165
 5420TIP3    H142371   5.280   1.736   0.840 -1.1847 -1.1899 -2.0829
 5420TIP3    H242372   5.340   1.706   0.704  3.1236 -1.4089 -0.2838
 5421TIP3   OH242373   6.416   1.903   0.266  0.7079  0.3062 -0.1227
 5421TIP3    H142374   6.490   1.908   0.205  0.2882  1.4608 -0.5527
 5421TIP3    H242375   6.363   1.980   0.247 -0.6792 -0.5541  0.1109
 5422TIP3   OH242376   2.357   2.412   6.972 -0.1212  0.1826 -0.5291
 5422TIP3    H142377   2.440   2.384   7.012 -0.2679  1.3028  0.6331
 5422TIP3    H242378   2.348   2.503   6.999 -2.9212 -0.5746  1.4773
 5423TIP3   OH242379   1.480   1.406   7.627  0.2517  0.6903 -0.6058
 5423TIP3    H142380   1.454   1.315   7.636  0.8637  0.5229 -0.4790
 5423TIP3    H242381   1.570   1.409   7.659 -0.2198  1.6100  0.7202
 5424TIP3   OH242382   6.727   0.307   1.820  0.1960  0.2270  0.4954
 5424TIP3    H142383   6.682   0.327   1.902 -1.6300  1.5608 -0.7660
 5424TIP3    H242384   6.730   0.211   1.818 -2.2908  0.0811  0.8327
 5425TIP3   OH242385   5.397   7.784   6.600  0.3893  0.0554  0.0375
 5425TIP3    H142386   5.455   7.734   6.543  0.4773 -1.1271  1.1244
 5425TIP3    H242387   5.410   7.746   6.687 -1.3760  0.3095  0.4568
 5426TIP3   OH242388   6.191   7.835   0.443  0.0288  0.5382  0.4354
 5426TIP3    H142389   6.285   7.828   0.457 -0.0872 -0.6352  0.7180
 5426TIP3    H242390   6.152   7.777   0.508 -0.9192  1.3428  0.6095
 5427TIP3   OH242391   6.534   3.727   6.631 -0.5943 -0.4487  0.3095
 5427TIP3    H142392   6.610   3.743   6.575 -1.1696 -2.3098 -1.0775
 5427TIP3    H242393   6.572   3.715   6.719  0.4243  1.3100  0.1574
 5428TIP3   OH242394   7.421   7.063   6.931  0.2078  0.0229 -0.2847
 5428TIP3    H142395   7.438   7.029   6.844  0.2697  2.0735 -1.1225
 5428TIP3    H242396   7.337   7.108   6.924 -0.8939 -1.6529  1.3128
 5429TIP3   OH242397   6.500   7.168   6.834 -0.6028  0.3021 -0.2166
 5429TIP3    H142398   6.464   7.147   6.747  0.9123 -0.9304 -0.5818
 5429TIP3    H242399   6.529   7.259   6.826 -1.5795  0.5987 -0.5977
 5430TIP3   OH242400   0.185   6.439   0.764 -0.4827 -0.1944 -0.4351
 5430TIP3    H142401   0.092   6.460   0.776 -0.7127 -1.6929  0.5302
 5430TIP3    H242402   0.229   6.484   0.836 -0.7189 -1.1106  0.3062
 5431TIP3   OH242403   8.025   5.253   1.628  0.5598  0.1933 -0.2995
 5431TIP3    H142404   7.945   5.291   1.666  0.7973 -0.6729  1.1517
 5431TIP3    H242405   8.087   5.252   1.701  1.0970 -1.3909 -0.7362
 5432TIP3   OH242406   0.371   2.037   1.329 -0.4705 -0.2880 -0.3574
 5432TIP3    H142407   0.370   2.093   1.251 -0.6209 -1.1060 -0.9543
 5432TIP3    H242408   0.449   1.983   1.319  0.8684  1.2318  1.2655
 5433TIP3   OH242409   7.487   6.835   7.362  0.0633  0.3131 -0.0919
 5433TIP3    H142410   7.488   6.743   7.387  1.4233  0.3235 -0.0691
 5433TIP3    H242411   7.469   6.834   7.268 -1.8368  0.1402  0.2278
 5434TIP3   OH242412   6.866   0.940   0.642 -0.3898  0.0469 -0.5024
 5434TIP3    H142413   6.857   0.928   0.736 -3.0945 -0.5320 -0.7377
 5434TIP3    H242414   6.950   0.901   0.621 -0.1505 -0.6682  1.5557
 5435TIP3   OH242415   2.750   2.432   1.259 -0.4154 -0.5482  0.6685
 5435TIP3    H142416   2.833   2.466   1.225 -1.7329  1.7031 -0.5726
 5435TIP3    H242417   2.760   2.436   1.354  0.9436 -0.4574  0.5495
 5436TIP3   OH242418   3.366   6.534   7.494 -0.2688  0.3770  0.0385
 5436TIP3    H142419   3.392   6.444   7.472  0.9384  0.5694  0.6098
 5436TIP3    H242420   3.271   6.534   7.485 -0.0596 -0.1062 -3.0506
 5437TIP3   OH242421   6.495   5.906   1.692  0.4249 -0.1352 -0.0156
 5437TIP3    H142422   6.538   5.844   1.750  1.3969  0.4308 -0.1132
 5437TIP3    H242423   6.566   5.963   1.660 -0.5864  1.8600  1.0827
 5438TIP3   OH242424   3.511   1.510   7.877  0.0396 -0.2335  0.0777
 5438TIP3    H142425   3.475   1.591   7.841  1.1978 -0.2456 -1.1897
 5438TIP3    H242426   3.493   1.444   7.810 -0.4614 -0.9463  0.8877
 5439TIP3   OH242427   2.784   7.932   6.482  0.1510  0.3539  0.0017
 5439TIP3    H142428   2.851   7.897   6.424  1.0394 -0.9313  1.7100
 5439TIP3    H242429   2.724   7.979   6.424  0.9761 -0.8519 -1.9221
 5440TIP3   OH242430   1.774   2.485   6.458  0.3341  0.5994 -0.3882
 5440TIP3    H142431   1.815   2.563   6.496  1.8762 -0.5908  0.5259
 5440TIP3    H242432   1.783   2.418   6.526  1.3162 -1.0622 -2.0744
 5441TIP3   OH242433   4.396   7.416   6.844 -0.0750  0.3666 -0.1762
 5441TIP3    H142434   4.380   7.447   6.755  0.2530  1.2494  0.0638
 5441TIP3    H242435   4.491   7.404   6.849 -0.2888 -2.1813 -0.7284
 5442TIP3   OH242436   5.140   0.751   7.809 -0.0929 -0.4204 -0.0660
 5442TIP3    H142437   5.057   0.751   7.857 -1.0446 -2.8278 -1.5092
 5442TIP3    H242438   5.207   0.754   7.876 -1.2414  2.5860  1.1321
 5443TIP3   OH242439   7.382   6.898   0.900 -0.0540 -0.4953  0.2569
 5443TIP3    H142440   7.322   6.972   0.911  0.6783  0.0672  0.6228
 5443TIP3    H242441   7.430   6.918   0.820  0.0482 -0.6455  0.2800
 5444TIP3   OH242442   3.996   7.368   1.111 -0.2633  0.3841 -0.2196
 5444TIP3    H142443   4.053   7.380   1.187 -0.8247  1.2482  0.0806
 5444TIP3    H242444   4.006   7.448   1.060 -0.0280 -0.1155 -0.9757
 5445TIP3   OH242445   5.946   1.199   7.719  0.4121 -0.0451  0.1492
 5445TIP3    H142446   5.980   1.208   7.808  0.7349  1.7330 -0.1220
 5445TIP3    H242447   5.859   1.237   7.723  0.1894 -0.5128 -0.1726
 5446TIP3   OH242448   0.190   4.289   6.249  0.9281 -0.4350 -0.6321
 5446TIP3    H142449   0.096   4.271   6.246  0.5874  1.2005 -0.9118
 5446TIP3    H242450   0.201   4.368   6.196  2.3593 -0.1941 -0.0367
 5447TIP3   OH242451   3.258   0.888   1.010  0.7150  0.4175 -0.7111
 5447TIP3    H142452   3.271   0.798   1.037  1.7288  0.9764  0.8024
 5447TIP3    H242453   3.344   0.929   1.020 -0.1059  1.9744  0.4750
 5448TIP3   OH242454   6.989   7.438   7.088 -0.3131 -0.3020 -0.7535
 5448TIP3    H142455   7.036   7.476   7.162 -1.2900 -0.8702  0.1787
 5448TIP3    H242456   6.987   7.509   7.023 -0.0972  0.4623  0.0490
 5449TIP3   OH242457   0.807   1.967   1.172 -0.4198 -0.1451 -0.0087
 5449TIP3    H142458   0.775   1.899   1.113  0.4450 -0.3616 -0.2399
 5449TIP3    H242459   0.878   2.009   1.124 -1.1988  1.2093 -0.0385
 5450TIP3   OH242460   3.184   4.175   7.766  0.1532  0.1335  0.0732
 5450TIP3    H142461   3.177   4.167   7.861 -0.5024 -1.4383 -0.0843
 5450TIP3    H242462   3.253   4.113   7.741  0.6871  0.9082 -0.4485
 5451TIP3   OH242463   6.399   7.145   1.392 -0.4140  0.7507 -0.4603
 5451TIP3    H142464   6.461   7.197   1.442 -0.1612  0.9433 -0.9665
 5451TIP3    H242465   6.394   7.188   1.307  0.8161 -0.8052 -1.3758
 5452TIP3   OH242466   0.816   4.305   6.072 -0.2454 -0.4767 -0.7196
 5452TIP3    H142467   0.752   4.326   6.004 -1.6799 -1.4206  0.2827
 5452TIP3    H242468   0.780   4.344   6.152  1.4281  0.6433 -0.4407
 5453TIP3   OH242469   7.146   7.827   1.633  0.2958  0.0891  0.4425
 5453TIP3    H142470   7.103   7.868   1.558  0.7026 -0.5172 -0.1300
 5453TIP3    H242471   7.190   7.750   1.597  1.4920  0.4446  1.0914
 5454TIP3   OH242472   5.245   5.309   6.016 -0.7537  0.3236  0.2981
 5454TIP3    H142473   5.265   5.216   6.020 -1.7936  0.1176  1.1728
 5454TIP3    H242474   5.168   5.315   5.959 -0.5757  0.6704  0.0891
 5455TIP3   OH242475   3.579   1.673   0.471 -0.2748  0.2613  0.5043
 5455TIP3    H142476   3.589   1.582   0.443  1.3958  0.7943 -0.8149
 5455TIP3    H242477   3.489   1.679   0.502 -0.8429 -1.5179 -0.6481
 5456TIP3   OH242478   4.930   0.725   1.233  0.6776 -0.1470 -0.2307
 5456TIP3    H142479   4.889   0.804   1.201 -0.8999 -0.1597  1.5783
 5456TIP3    H242480   4.917   0.660   1.164 -1.7847  0.0458 -0.0094
 5457TIP3   OH242481   7.017   5.854   0.188 -0.0249 -0.1161  0.6286
 5457TIP3    H142482   7.052   5.936   0.221  0.2435  0.6747 -1.4534
 5457TIP3    H242483   7.091   5.793   0.188  1.2961  1.2230 -2.7055
 5458TIP3   OH242484   6.825   7.702   7.716 -0.3992  0.0393  0.0145
 5458TIP3    H142485   6.862   7.647   7.785  2.1305 -0.0820 -1.3125
 5458TIP3    H242486   6.747   7.655   7.687 -0.4549 -0.8517  1.5069
 5459TIP3   OH242487   3.986   0.467   0.771 -0.4204 -0.4486  0.2297
 5459TIP3    H142488   3.946   0.443   0.854 -0.6349 -3.0610 -0.5123
 5459TIP3    H242489   4.081   0.459   0.786 -0.4616 -0.9791  0.2259
 5460TIP3   OH242490   3.511   4.604   0.666  0.3387  0.7677  0.0987
 5460TIP3    H142491   3.596   4.620   0.707  0.9063 -2.3521  0.3783
 5460TIP3    H242492   3.457   4.566   0.736 -0.8755  1.4534 -0.4252
 5461TIP3   OH242493   2.174   2.619   6.218 -0.3489  0.6179  0.1281
 5461TIP3    H142494   2.150   2.535   6.257 -0.0242 -0.5173 -1.9392
 5461TIP3    H242495   2.262   2.636   6.250  0.2100 -0.6739 -0.6200
 5462TIP3   OH242496   3.072   6.875   0.075 -0.4989  0.2860 -0.0980
 5462TIP3    H142497   3.031   6.788   0.075  0.5826 -0.2528 -1.1596
 5462TIP3    H242498   3.007   6.931   0.032 -0.4992 -0.3725 -0.9870
 5463TIP3   OH242499   1.477   7.282   2.206 -0.0748 -0.0053  0.5332
 5463TIP3    H142500   1.491   7.187   2.205 -1.5593 -0.2535  0.7248
 5463TIP3    H242501   1.507   7.309   2.293 -1.4336 -0.6427  1.2407
 5464TIP3   OH242502   6.028   4.937   1.775 -0.2849  0.2450 -0.0823
 5464TIP3    H142503   5.965   4.877   1.815  0.6554 -1.2608 -0.7515
 5464TIP3    H242504   6.050   4.896   1.691  2.9325 -0.3373  0.8925
 5465TIP3   OH242505   7.799   2.330   6.870  0.3053 -0.2561  0.1530
 5465TIP3    H142506   7.771   2.266   6.805 -2.3033  0.2906  0.6215
 5465TIP3    H242507   7.836   2.402   6.819 -0.2585 -0.5094 -0.6255
 5466TIP3   OH242508   6.285   1.923   7.177  0.5743 -0.2401 -0.3826
 5466TIP3    H142509   6.230   1.978   7.233  0.4419 -1.1144  0.3681
 5466TIP3    H242510   6.375   1.945   7.202  0.5107 -0.9905  0.5568
 5467TIP3   OH242511   5.565   3.861   0.205  0.3244 -0.4054  0.5968
 5467TIP3    H142512   5.494   3.923   0.221  1.3968  0.7339  1.0665
 5467TIP3    H242513   5.587   3.872   0.113  0.3737 -0.2466  0.6280
 5468TIP3   OH242514   0.556   1.090   5.716  0.1528 -0.4268  0.4603
 5468TIP3    H142515   0.584   1.177   5.744 -0.3096 -0.5365  1.2866
 5468TIP3    H242516   0.525   1.048   5.795  0.1117 -1.2538  0.0172
 5469TIP3   OH242517   6.135   7.247   1.404 -0.6723 -0.1174  0.3897
 5469TIP3    H142518   6.190   7.185   1.451 -1.8408 -1.9095 -0.4929
 5469TIP3    H242519   6.156   7.233   1.312 -2.3006 -0.5690  0.0635
 5470TIP3   OH242520   8.005   5.643   6.148  0.2483  0.0489  0.0499
 5470TIP3    H142521   7.958   5.592   6.082 -0.2299  1.0950 -0.4434
 5470TIP3    H242522   8.028   5.579   6.216 -1.0575 -0.6669 -0.1483
 5471TIP3   OH242523   6.678   2.841   0.462  0.5110 -0.4480 -0.1999
 5471TIP3    H142524   6.600   2.857   0.408 -1.3394 -3.3288  1.3180
 5471TIP3    H242525   6.708   2.928   0.487 -3.2289  0.8943  0.3932
 5472TIP3   OH242526   7.886   4.485   6.288 -0.1432 -0.2337  0.1895
 5472TIP3    H142527   7.842   4.412   6.244  1.4569 -0.5684 -0.9764
 5472TIP3    H242528   7.838   4.562   6.261 -0.2183 -0.6128 -0.8035
 5473TIP3   OH242529   0.660   0.114   0.494 -0.0202  0.4317  0.1295
 5473TIP3    H142530   0.670   0.112   0.590  1.7166  2.0446  0.0568
 5473TIP3    H242531   0.644   0.206   0.475 -0.9630  0.0249 -1.1117
 5474TIP3   OH242532   6.049   7.919   2.470  0.2861  0.6023 -0.5968
 5474TIP3    H142533   6.106   7.994   2.481  1.3712 -0.2844  0.0457
 5474TIP3    H242534   5.993   7.919   2.547 -0.5328  1.4155 -1.1780
 5475TIP3   OH242535   0.893   4.730   6.945  0.5707  0.0710  0.3049
 5475TIP3    H142536   0.979   4.745   6.906  1.2946 -1.2619  1.2956
 5475TIP3    H242537   0.867   4.644   6.913 -0.5575  0.5778 -0.2112
 5476TIP3   OH242538   3.336   1.217   1.206 -0.3067  0.0377  0.3587
 5476TIP3    H142539   3.339   1.167   1.288  0.2561 -0.5086  0.0186
 5476TIP3    H242540   3.425   1.251   1.196 -0.9821  2.2094  1.2254
 5477TIP3   OH242541   7.654   5.500   2.316  0.6050  0.5574  0.2328
 5477TIP3    H142542   7.629   5.436   2.249 -1.0412  1.1572  0.2224
 5477TIP3    H242543   7.741   5.473   2.343  1.0595 -0.0925 -1.6782
 5478TIP3   OH242544   8.025   2.983   6.487  0.2034  0.2204 -0.0646
 5478TIP3    H142545   8.066   3.067   6.466 -1.0762  0.4942 -1.5968
 5478TIP3    H242546   8.080   2.947   6.557  1.0557  2.0982  0.2985
 5479TIP3   OH242547   7.821   1.247   0.631 -0.0523  0.5302 -0.2680
 5479TIP3    H142548   7.863   1.323   0.670 -0.3344  0.1293  0.8408
 5479TIP3    H242549   7.878   1.224   0.557  1.7797 -0.0671  1.2540
 5480TIP3   OH242550   4.743   4.142   2.029 -0.3816 -0.6386 -0.0346
 5480TIP3    H142551   4.770   4.142   2.121 -0.0848 -1.9883 -0.1127
 5480TIP3    H242552   4.660   4.094   2.029 -0.3539 -0.6871 -0.4905
 5481TIP3   OH242553   6.233   2.901   6.512  0.4829  0.3154  0.0637
 5481TIP3    H142554   6.194   2.947   6.585  2.2597 -0.8570  1.8724
 5481TIP3    H242555   6.328   2.908   6.527  0.8696 -0.9140 -1.4905
 5482TIP3   OH242556   5.032   1.189   5.965 -0.3150 -0.1256 -0.3605
 5482TIP3    H142557   5.059   1.138   5.889 -1.0360  1.7596 -1.9609
 5482TIP3    H242558   4.941   1.213   5.947 -0.1973  1.1816  0.6295
 5483TIP3   OH242559   4.988   5.589   7.084 -0.0716 -0.0593 -0.2853
 5483TIP3    H142560   5.023   5.537   7.012 -1.2411  1.4118 -1.9706
 5483TIP3    H242561   4.900   5.614   7.056 -0.4654  0.7734  1.5459
 5484TIP3   OH242562   1.301   0.164   6.854 -0.0547  0.5517 -0.0627
 5484TIP3    H142563   1.292   0.069   6.856  2.4499  0.2481  1.8422
 5484TIP3    H242564   1.243   0.194   6.925 -2.4002  0.7378 -1.9276
 5485TIP3   OH242565   1.524   0.703   6.606  0.1967  0.2301  0.6115
 5485TIP3    H142566   1.434   0.737   6.609  0.6852  1.5942  0.4936
 5485TIP3    H242567   1.547   0.688   6.698 -0.7717 -1.9319  0.5615
 5486TIP3   OH242568   1.332   2.871   1.320 -0.0105 -0.2782  0.3719
 5486TIP3    H142569   1.379   2.952   1.339  0.1277 -0.5968  1.4817
 5486TIP3    H242570   1.283   2.890   1.240  0.6235  0.6406  0.1847
 5487TIP3   OH242571   0.550   3.582   0.926 -0.1615 -0.3991  0.3322
 5487TIP3    H142572   0.520   3.635   1.000  1.3213 -2.0783  2.2788
 5487TIP3    H242573   0.543   3.639   0.850 -1.4933  1.5198  1.8159
 5488TIP3   OH242574   1.534   1.282   1.408 -0.5051 -0.0723  0.6095
 5488TIP3    H142575   1.627   1.274   1.431  0.4859 -0.0233 -2.8848
 5488TIP3    H242576   1.517   1.376   1.405  0.0608 -0.0017 -1.1332
 5489TIP3   OH242577   7.301   0.707   1.924  0.3546  0.2746  0.5358
 5489TIP3    H142578   7.236   0.763   1.881  0.5521 -0.1741 -0.3875
 5489TIP3    H242579   7.302   0.735   2.015 -1.3456  0.1040  0.6325
 5490TIP3   OH242580   7.859   2.530   6.136  0.2295  0.3235 -0.4556
 5490TIP3    H142581   7.928   2.464   6.125 -0.6449 -0.5386 -0.9374
 5490TIP3    H242582   7.827   2.545   6.047 -0.9132 -0.0780 -0.1248
 5491TIP3   OH242583   4.687   7.385   6.706 -0.1973  0.6129  0.5264
 5491TIP3    H142584   4.713   7.338   6.786  1.1819  2.9235  1.5198
 5491TIP3    H242585   4.761   7.375   6.647 -0.0733  1.1787  0.5851
 5492TIP3   OH242586   3.002   7.974   0.689 -0.0375  0.2513  0.5532
 5492TIP3    H142587   3.058   7.923   0.630 -1.1606 -0.5921  0.1800
 5492TIP3    H242588   3.002   7.924   0.771  1.3408  1.3054  1.2388
 5493TIP3   OH242589   0.556   7.097   2.015 -0.1814 -0.0320 -0.1861
 5493TIP3    H142590   0.625   7.086   2.080 -1.3584  0.6171  1.2103
 5493TIP3    H242591   0.510   7.177   2.041  0.0356  0.9468 -2.5101
 5494TIP3   OH242592   3.183   0.013   7.277  0.3382  0.5367  0.6882
 5494TIP3    H142593   3.125  -0.001   7.352 -0.6213 -1.4753 -0.3572
 5494TIP3    H242594   3.129   0.059   7.213  0.5438  0.4663  0.4642
 5495TIP3   OH242595   1.024   7.592   6.994 -0.0198 -0.0325 -0.6208
 5495TIP3    H142596   1.043   7.586   6.900  0.2338 -2.2751 -0.4703
 5495TIP3    H242597   1.110   7.586   7.036 -0.2661 -0.9078 -0.2177
 5496TIP3   OH242598   0.043   6.806   5.862 -0.1342 -0.0293 -0.0046
 5496TIP3    H142599   0.107   6.783   5.794 -0.2962 -1.9405  0.4188
 5496TIP3    H242600  -0.042   6.796   5.819 -0.2457 -1.4699  0.4852
 5497TIP3   OH242601   2.997   5.755   6.855 -0.1632 -0.4230 -0.1046
 5497TIP3    H142602   3.018   5.765   6.762 -0.4483  0.1044 -0.1154
 5497TIP3    H242603   3.045   5.826   6.898  0.9664 -1.4128  0.3045
 5498TIP3   OH242604   1.504   4.090   1.124  0.0054 -0.0404 -0.1854
 5498TIP3    H142605   1.416   4.082   1.161  1.1375  0.7436  3.0510
 5498TIP3    H242606   1.518   4.184   1.118  0.1646 -0.1615 -2.0226
 5499TIP3   OH242607   0.066   4.115   6.689 -0.0857  0.3575  0.2851
 5499TIP3    H142608   0.002   4.084   6.754 -0.3015 -1.9914 -0.9450
 5499TIP3    H242609   0.151   4.090   6.725 -0.3214 -4.6942 -1.8738
 5500TIP3   OH242610   8.042   2.473   6.403 -0.3282 -0.4475 -0.3078
 5500TIP3    H142611   8.008   2.560   6.424 -0.3249 -0.7987  1.2817
 5500TIP3    H242612   8.033   2.466   6.308 -3.8957 -0.1583 -0.1174
 5501TIP3   OH242613   7.906   5.889   0.913 -0.3507  0.6275  0.1874
 5501TIP3    H142614   7.917   5.794   0.918  0.1023  0.7406  1.8400
 5501TIP3    H242615   7.889   5.916   1.003 -1.7348  1.9848 -0.4302
 5502TIP3   OH242616   2.981   2.655   6.485 -0.1727  0.3232 -0.0185
 5502TIP3    H142617   2.995   2.593   6.557  1.1339 -0.9580 -1.3073
 5502TIP3    H242618   2.965   2.738   6.529 -0.8763 -0.6816  1.7615
 5503TIP3   OH242619   3.617   0.124   1.365  0.4803 -0.4605  0.0992
 5503TIP3    H142620   3.529   0.096   1.388  0.3742  1.3588  2.1610
 5503TIP3    H242621   3.603   0.200   1.309  0.7643 -0.5743 -0.1287
 5504TIP3   OH242622   6.648   3.921   6.376 -0.1522  0.4394 -0.0926
 5504TIP3    H142623   6.727   3.974   6.367  0.6323 -0.7919 -0.6096
 5504TIP3    H242624   6.613   3.913   6.288 -0.5872  0.5668  0.0639
 5505TIP3   OH242625   7.190   2.252   0.207 -0.0198 -0.1759 -0.7197
 5505TIP3    H142626   7.095   2.248   0.224 -0.0639  2.7073  0.2076
 5505TIP3    H242627   7.226   2.181   0.261 -1.6051 -1.2837 -1.0305
 5506TIP3   OH242628   6.021   4.042   7.891 -0.0676 -0.3107 -0.1288
 5506TIP3    H142629   5.938   4.059   7.936  1.2935  1.5308  1.8898
 5506TIP3    H242630   6.043   3.952   7.915 -1.8807 -1.1925 -1.5061
 5507TIP3   OH242631   6.905   2.742   7.621 -0.4732  0.4525 -0.0426
 5507TIP3    H142632   6.949   2.772   7.700  0.5866  0.7237 -0.7147
 5507TIP3    H242633   6.903   2.818   7.564  0.5801 -0.2342 -1.0451
 5508TIP3   OH242634   7.646   5.094   1.151 -0.7715  0.4686  0.0765
 5508TIP3    H142635   7.581   5.044   1.199  0.1745 -0.7740  0.1043
 5508TIP3    H242636   7.660   5.045   1.070 -0.1694  0.9270 -0.1073
 5509TIP3   OH242637   2.305   7.421   6.692 -0.9447  0.2436  0.1204
 5509TIP3    H142638   2.398   7.405   6.676 -0.5794  1.4312  0.9331
 5509TIP3    H242639   2.280   7.353   6.755 -0.9825 -0.9026 -1.0866
 5510TIP3   OH242640   0.145   6.262   6.481  0.3286  0.0394  0.4603
 5510TIP3    H142641   0.130   6.176   6.442 -0.6085  0.5602 -0.3803
 5510TIP3    H242642   0.063   6.281   6.528 -0.2752  1.3264 -1.0521
 5511TIP3   OH242643   7.715   4.240   6.616  0.2363  0.1216 -0.1486
 5511TIP3    H142644   7.753   4.271   6.698 -0.5303  0.5764  0.0419
 5511TIP3    H242645   7.782   4.183   6.579  1.5754  1.7189 -0.3484
 5512TIP3   OH242646   0.834   2.145   7.399 -0.6099 -0.2454 -0.7557
 5512TIP3    H142647   0.753   2.104   7.368 -0.5910  0.5737 -1.9841
 5512TIP3    H242648   0.821   2.238   7.383 -0.2956  0.1509  1.1420
 5513TIP3   OH242649   6.556   0.200   7.082  0.4038  0.0102 -0.0029
 5513TIP3    H142650   6.577   0.115   7.120  1.9011  0.0241 -0.7195
 5513TIP3    H242651   6.602   0.263   7.138  0.3189  0.2407 -0.1907
 5514TIP3   OH242652   6.612   5.405   5.646  0.0287 -0.1450 -0.8677
 5514TIP3    H142653   6.563   5.326   5.624  1.7516 -1.3805 -0.4582
 5514TIP3    H242654   6.656   5.385   5.728  0.7636  1.1173 -0.9184
 5515TIP3   OH242655   1.835   4.692   0.571  0.1432 -0.0398 -0.2590
 5515TIP3    H142656   1.792   4.743   0.502  1.0368  1.7143  0.4279
 5515TIP3    H242657   1.786   4.712   0.650  1.0659  0.5146  0.1892
 5516TIP3   OH242658   4.766   7.567   7.752 -0.1899  0.3294  0.2786
 5516TIP3    H142659   4.682   7.586   7.794 -1.0739  0.5676 -1.5279
 5516TIP3    H242660   4.786   7.646   7.702  0.3648 -0.3003 -0.5085
 5517TIP3   OH242661   0.881   5.282   1.488  0.4050  0.7975  0.0984
 5517TIP3    H142662   0.846   5.200   1.454  0.9007  0.9644 -0.8331
 5517TIP3    H242663   0.898   5.264   1.581 -2.7885  0.9389  0.8334
 5518TIP3   OH242664   0.288   1.508   0.756  0.1300 -0.0677 -0.5566
 5518TIP3    H142665   0.362   1.464   0.798 -1.1336 -1.0233  0.7718
 5518TIP3    H242666   0.304   1.602   0.771  1.0043 -0.2596 -0.2202
 5519TIP3   OH242667   1.329   0.055   7.764 -0.0766 -0.4378  0.2029
 5519TIP3    H142668   1.358  -0.004   7.695 -1.9328 -0.3948 -0.6582
 5519TIP3    H242669   1.288   0.128   7.718  0.2303  0.4694  1.3173
 5520TIP3   OH242670   5.095   2.912   6.642 -0.0899 -0.4184  0.4040
 5520TIP3    H142671   5.052   2.975   6.700  1.0746  2.6117 -1.7695
 5520TIP3    H242672   5.024   2.854   6.612 -1.2819  0.0618  2.1775
 5521TIP3   OH242673   1.919   5.604   6.973  0.6402  0.9690 -0.0295
 5521TIP3    H142674   1.903   5.616   7.067 -2.7745  0.2124 -0.3912
 5521TIP3    H242675   1.877   5.679   6.932  1.9564  1.2004 -1.0221
 5522TIP3   OH242676   1.173   7.678   0.917 -0.5227 -0.1261  0.0507
 5522TIP3    H142677   1.179   7.770   0.893 -1.8495 -0.1631 -0.4718
 5522TIP3    H242678   1.140   7.634   0.839 -0.5808 -0.9360  0.5141
 5523TIP3   OH242679   1.794   2.540   0.056  0.1600 -0.5866  0.1755
 5523TIP3    H142680   1.827   2.508   0.140  0.2805 -3.7955 -0.9632
 5523TIP3    H242681   1.869   2.585   0.017 -0.0013  1.2693  1.8545
 5524TIP3   OH242682   6.475   4.457   6.967 -0.2567  0.0243 -0.5081
 5524TIP3    H142683   6.438   4.376   7.003 -1.2610  0.4190 -0.6266
 5524TIP3    H242684   6.419   4.527   7.000 -0.9388  0.4498 -2.4065
 5525TIP3   OH242685   3.621   1.364   6.672 -0.1879  0.3461 -0.0277
 5525TIP3    H142686   3.565   1.355   6.595 -0.6077  2.2981 -0.0148
 5525TIP3    H242687   3.708   1.338   6.642 -0.1228  2.0708 -1.5174
 5526TIP3   OH242688   2.410   6.294   0.323 -0.5789  0.1481  0.5742
 5526TIP3    H142689   2.350   6.369   0.324 -1.6007 -0.6333  0.3046
 5526TIP3    H242690   2.386   6.245   0.244  1.6760  0.7685 -0.5593
 5527TIP3   OH242691   7.299   5.273   7.340 -0.3042  0.1816 -0.0230
 5527TIP3    H142692   7.242   5.220   7.396  0.5398  0.3672  1.0476
 5527TIP3    H242693   7.278   5.364   7.362  0.5529  0.2521  0.5632
 5528TIP3   OH242694   6.253   6.988   5.520  0.4913 -0.0600  0.4248
 5528TIP3    H142695   6.299   6.912   5.483 -0.7654 -0.5144 -0.2564
 5528TIP3    H242696   6.313   7.061   5.506  1.2768 -0.7344  0.1308
 5529TIP3   OH242697   1.313   7.728   1.171 -0.0418  0.0892  0.9117
 5529TIP3    H142698   1.389   7.670   1.176 -0.4572 -0.6107 -0.3849
 5529TIP3    H242699   1.272   7.706   1.087 -1.1447  1.1141  1.1594
 5530TIP3   OH242700   3.542   3.679   1.522  0.1374  0.5004  0.0425
 5530TIP3    H142701   3.581   3.663   1.608  0.9035 -1.2715 -0.5732
 5530TIP3    H242702   3.526   3.591   1.487 -2.2876  1.1708 -0.7088
 5531TIP3   OH242703   2.915   3.292   7.088  0.7423 -0.1588  0.1551
 5531TIP3    H142704   2.863   3.216   7.117  2.9266 -1.9551 -0.3278
 5531TIP3    H242705   2.982   3.302   7.155  0.9628  0.8712 -0.2023
 5532TIP3   OH242706   7.801   3.061   6.780  0.0808  0.3105  0.4251
 5532TIP3    H142707   7.855   2.987   6.754 -0.9230  0.3334 -1.9044
 5532TIP3    H242708   7.746   3.080   6.704 -1.6975  1.6482  1.9388
 5533TIP3   OH242709   2.202   5.074   6.541  0.2082 -0.1249  0.1371
 5533TIP3    H142710   2.126   5.038   6.586 -1.6612  0.0847 -2.5973
 5533TIP3    H242711   2.273   5.014   6.561 -1.2502 -1.6280  0.9699
 5534TIP3   OH242712   3.821   3.069   5.828 -0.2859  0.6913 -0.1732
 5534TIP3    H142713   3.869   3.104   5.903 -1.9730 -0.0360  1.3227
 5534TIP3    H242714   3.888   3.056   5.761  1.8818 -1.3825  2.1809
 5535TIP3   OH242715   2.352   5.579   7.945  0.1189 -0.2220 -0.0016
 5535TIP3    H142716   2.410   5.647   7.978  0.3921 -0.4895  0.0745
 5535TIP3    H242717   2.276   5.581   8.003  0.5196 -0.5780  0.5526
 5536TIP3   OH242718   2.167   3.119   0.319  0.0872  0.5285  0.0213
 5536TIP3    H142719   2.188   3.030   0.347 -1.6323  0.1365  0.1835
 5536TIP3    H242720   2.188   3.174   0.394  0.3044  0.1435  0.2437
 5537TIP3   OH242721   2.881   1.528   7.741  0.8798  0.7382 -0.5082
 5537TIP3    H142722   2.940   1.564   7.675  2.7039 -0.1864  0.5344
 5537TIP3    H242723   2.854   1.443   7.706  1.4113  0.4856 -0.3049
 5538TIP3   OH242724   0.765   2.607   0.432 -0.0378 -0.1313 -0.3088
 5538TIP3    H142725   0.824   2.672   0.393  0.9641 -0.7620  0.1096
 5538TIP3    H242726   0.822   2.553   0.487 -1.3771  0.8843  2.2781
 5539TIP3   OH242727   0.402   1.110   0.894 -0.0327  0.2228  0.1902
 5539TIP3    H142728   0.406   1.055   0.973  0.7039  2.3070  1.6998
 5539TIP3    H242729   0.411   1.199   0.927 -1.1757  1.2936 -2.1519
 5540TIP3   OH242730   4.632   5.634   1.416  0.8503  0.1282 -0.9662
 5540TIP3    H142731   4.728   5.634   1.418  0.8447 -0.3870 -0.4462
 5540TIP3    H242732   4.607   5.702   1.479  0.8708 -0.9318  0.2242
 5541TIP3   OH242733   5.888   4.947   6.344  0.2082  0.3534  0.7521
 5541TIP3    H142734   5.817   4.896   6.382  1.1835 -0.8420  1.0226
 5541TIP3    H242735   5.879   5.034   6.384 -1.4027  0.4020  0.3591
 5542TIP3   OH242736   2.237   5.198   0.079  0.2963 -0.0070  0.5267
 5542TIP3    H142737   2.293   5.275   0.069  1.3540 -0.7112  0.8404
 5542TIP3    H242738   2.217   5.195   0.172  0.9092 -0.5371  0.6497
 5543TIP3   OH242739   4.546   4.766   7.173  0.2133  0.0531  0.3808
 5543TIP3    H142740   4.457   4.797   7.190 -0.2698  0.7184 -2.7905
 5543TIP3    H242741   4.594   4.844   7.144  1.4827 -0.5517  0.7523
 5544TIP3   OH242742   7.810   6.562   0.805 -0.3051  0.4997 -0.3887
 5544TIP3    H142743   7.764   6.567   0.721 -1.6763 -0.5695  0.2571
 5544TIP3    H242744   7.758   6.616   0.864 -1.8458 -2.0273  0.7746
 5545TIP3   OH242745   6.356   8.045   7.576 -0.6430  0.7402 -0.1245
 5545TIP3    H142746   6.320   8.102   7.644 -1.2249  0.2414 -0.0062
 5545TIP3    H242747   6.416   7.987   7.622 -1.9537 -0.4172  0.2020
 5546TIP3   OH242748   0.576   8.001   7.016 -0.2464  0.3485 -0.4935
 5546TIP3    H142749   0.592   7.935   7.083 -1.0673  0.0900 -0.5391
 5546TIP3    H242750   0.648   8.063   7.026 -0.2761  0.2348  0.5217
 5547TIP3   OH242751   7.574   2.022   1.069 -0.1507  0.3626  0.2228
 5547TIP3    H142752   7.611   2.053   0.986 -1.1933 -0.5575 -0.6063
 5547TIP3    H242753   7.487   2.063   1.073 -0.6531 -0.6831  0.1890
 5548TIP3   OH242754   6.006   2.477   7.476  0.4250  0.0178 -0.4818
 5548TIP3    H142755   5.999   2.382   7.487 -0.6977  0.1571  0.2207
 5548TIP3    H242756   6.037   2.489   7.387  1.4051 -1.0253 -0.2969
 5549TIP3   OH242757   3.895   5.229   0.409  0.5697 -0.0965  0.0979
 5549TIP3    H142758   3.901   5.135   0.393 -0.2305 -0.0455 -0.5615
 5549TIP3    H242759   3.940   5.269   0.335  0.0038  0.0508 -0.1780
 5550TIP3   OH242760   6.117   7.240   6.088  0.0994 -0.6588  0.0655
 5550TIP3    H142761   6.098   7.226   5.995 -0.7508  2.4558 -0.3771
 5550TIP3    H242762   6.166   7.323   6.089  0.9802 -1.1489  2.3469
 5551TIP3   OH242763   0.469   6.439   7.216  0.3605  0.0064 -0.5434
 5551TIP3    H142764   0.495   6.449   7.308  2.0679  0.0266 -1.0065
 5551TIP3    H242765   0.495   6.521   7.174 -0.1127 -0.1359 -1.1288
 5552TIP3   OH242766   1.721   4.240   1.671 -0.1390 -0.5238  0.0743
 5552TIP3    H142767   1.766   4.201   1.596  2.3621 -1.3815  1.8857
 5552TIP3    H242768   1.663   4.171   1.703 -0.7751 -0.3567 -0.6888
 5553TIP3   OH242769   7.814   7.821   7.010  0.3867  0.7325 -0.1550
 5553TIP3    H142770   7.795   7.730   6.986  0.7854  1.2613 -2.8283
 5553TIP3    H242771   7.803   7.870   6.928  2.1064  2.7880  0.7422
 5554TIP3   OH242772   2.501   7.126   6.706 -0.2857  0.1071  0.3193
 5554TIP3    H142773   2.473   7.058   6.645  1.6841 -1.2849  0.8845
 5554TIP3    H242774   2.549   7.188   6.652 -0.4055  0.0291  0.1198
 5555TIP3   OH242775   5.136   6.471   7.227 -0.2325  0.2265 -0.4626
 5555TIP3    H142776   5.165   6.443   7.140 -0.8024 -0.2315 -0.5106
 5555TIP3    H242777   5.160   6.398   7.285  0.5484  0.7179 -0.1533
 5556TIP3   OH242778   0.201   0.012   7.916  0.3200  0.2595 -0.6127
 5556TIP3    H142779   0.151  -0.064   7.885  0.6845 -1.0668  1.8557
 5556TIP3    H242780   0.268   0.024   7.848 -0.7765 -0.5168 -1.9080
 5557TIP3   OH242781   2.916   7.066   7.906 -0.4144 -0.6417  0.5723
 5557TIP3    H142782   2.860   7.022   7.843 -2.2829  1.6547  0.4862
 5557TIP3    H242783   2.860   7.082   7.982  0.6800  0.0017  1.2729
 5558TIP3   OH242784   0.168   6.212   1.483 -0.4237 -0.1354  0.2581
 5558TIP3    H142785   0.150   6.124   1.516  0.8356  0.2929  2.3266
 5558TIP3    H242786   0.263   6.223   1.494 -0.1009  0.5325 -2.5442
 5559TIP3   OH242787   7.383   1.706   6.922 -0.0054 -0.2255 -0.6550
 5559TIP3    H142788   7.425   1.664   6.847  1.2246  1.0998 -0.7508
 5559TIP3    H242789   7.356   1.792   6.890 -1.5030 -0.4739 -0.1690
 5560TIP3   OH242790   4.221   4.838   6.346 -0.0694  0.4802 -0.3407
 5560TIP3    H142791   4.223   4.862   6.439  1.8482 -1.9880  0.3757
 5560TIP3    H242792   4.295   4.885   6.307 -2.2105  3.3659 -1.2901
 5561TIP3   OH242793   7.021   5.356   0.002  0.7325 -0.2756 -0.2638
 5561TIP3    H142794   7.085   5.398  -0.056  0.7675 -0.1558 -0.1395
 5561TIP3    H242795   7.071   5.286   0.046  0.3541 -1.3368 -1.4507
 5562TIP3   OH242796   6.229   4.751   6.954 -0.1066  0.7465 -0.3018
 5562TIP3    H142797   6.251   4.844   6.946 -0.5583  0.8031 -0.9071
 5562TIP3    H242798   6.256   4.728   7.043 -0.7825  1.6668  0.1481
 5563TIP3   OH242799   5.495   4.799   0.248  0.4326  0.2616 -0.6069
 5563TIP3    H142800   5.582   4.808   0.209  0.2250 -1.0576 -1.4339
 5563TIP3    H242801   5.460   4.718   0.211 -0.6998  0.1671  0.5949
 5564TIP3   OH242802   6.406   7.880   5.692 -0.5982  0.1524 -0.1107
 5564TIP3    H142803   6.389   7.965   5.652  0.7764  0.6322  0.2846
 5564TIP3    H242804   6.353   7.818   5.641 -2.4635  1.3714  0.2718
 5565TIP3   OH242805   0.822   6.495   0.411 -0.0888 -0.2149 -0.4397
 5565TIP3    H142806   0.770   6.415   0.410 -0.2170 -0.1757  0.9629
 5565TIP3    H242807   0.776   6.554   0.352 -0.7096 -0.7323 -0.4873
 5566TIP3   OH242808   5.469   3.733   1.331  0.1398 -0.5962  0.2028
 5566TIP3    H142809   5.547   3.778   1.297  1.3167 -2.2969  0.4766
 5566TIP3    H242810   5.397   3.768   1.280  0.9777  1.4914  0.3422
 5567TIP3   OH242811   6.674   0.375   6.023 -0.6499  0.1203  0.0064
 5567TIP3    H142812   6.727   0.354   5.947 -0.6013  0.5073 -0.0707
 5567TIP3    H242813   6.622   0.296   6.039  1.2649 -0.9721  1.2289
 5568TIP3   OH242814   7.530   5.962   7.560 -0.0726  0.6426  0.0021
 5568TIP3    H142815   7.482   5.906   7.621 -0.1220  2.9511  2.2209
 5568TIP3    H242816   7.492   5.941   7.474 -0.0710 -2.6407  0.6709
 5569TIP3   OH242817   5.506   7.389   7.838 -0.4526 -0.3128  0.3491
 5569TIP3    H142818   5.420   7.356   7.864 -0.3985 -1.3754 -0.7396
 5569TIP3    H242819   5.551   7.314   7.799  0.7197  0.3922  0.2767
 5570TIP3   OH242820   3.585   2.686   0.038  0.4397 -0.0041  0.0956
 5570TIP3    H142821   3.606   2.608   0.089  0.5835 -0.2015 -0.2628
 5570TIP3    H242822   3.502   2.665  -0.005 -0.3699  0.6715  1.2974
 5571TIP3   OH242823   1.918   7.206   6.439  0.2668 -0.0822 -0.4241
 5571TIP3    H142824   1.938   7.256   6.361  0.3214 -0.9925 -1.0059
 5571TIP3    H242825   1.842   7.250   6.477 -0.1047  0.0494 -1.2949
 5572TIP3   OH242826   1.418   3.253   0.214 -0.3499  0.2599  0.4579
 5572TIP3    H142827   1.369   3.325   0.253 -0.3531  0.5879 -0.1420
 5572TIP3    H242828   1.403   3.179   0.273 -0.3682  0.7408  1.0615
 5573TIP3   OH242829   5.687   5.443   7.061  0.0346 -0.1614 -0.0859
 5573TIP3    H142830   5.626   5.384   7.105  0.5901 -0.7031 -0.0131
 5573TIP3    H242831   5.652   5.531   7.076 -0.6378 -0.4551  0.0738
 5574TIP3   OH242832   6.795   7.448   6.299  0.2025  0.4306  0.2715
 5574TIP3    H142833   6.755   7.444   6.212 -1.5984  0.7473  1.0600
 5574TIP3    H242834   6.790   7.541   6.322 -0.8852  0.1076  1.4019
 5575TIP3   OH242835   4.399   1.019   7.293 -0.3459  0.3441 -0.3834
 5575TIP3    H142836   4.470   1.082   7.306 -0.0465  0.5601 -2.5963
 5575TIP3    H242837   4.323   1.060   7.334  0.7324  0.1640  1.9212
 5576TIP3   OH242838   5.173   6.613   7.691  0.1482  0.3074  0.5640
 5576TIP3    H142839   5.242   6.654   7.640  1.1541  1.0501  2.4044
 5576TIP3    H242840   5.109   6.683   7.705 -0.1736  0.0805  0.2451
 5577TIP3   OH242841   8.071   6.154   0.661  0.2566  0.4365  0.6185
 5577TIP3    H142842   8.011   6.191   0.725  0.0961 -1.2938  1.5402
 5577TIP3    H242843   8.042   6.190   0.577 -1.4052  0.4997  1.1748
 5578TIP3   OH242844   5.574   6.748   7.068  0.3456  0.2435 -0.0889
 5578TIP3    H142845   5.661   6.711   7.081 -0.1790 -0.1894  2.8468
 5578TIP3    H242846   5.586   6.842   7.075  0.8750  0.3760 -2.1504
 5579TIP3   OH242847   0.369   7.180   0.305 -0.0259 -0.3829 -1.0357
 5579TIP3    H142848   0.310   7.255   0.311 -1.3302 -1.4766  0.8603
 5579TIP3    H242849   0.451   7.211   0.343 -1.2584 -0.4766  1.9647
 5580TIP3   OH242850   6.815   3.406   0.981  0.2409 -0.0536 -0.2801
 5580TIP3    H142851   6.743   3.439   0.927 -0.1763 -1.0136 -0.3186
 5580TIP3    H242852   6.808   3.456   1.062 -0.0203  0.3717 -0.5600
 5581TIP3   OH242853   6.245   0.424   5.780 -0.3811 -0.9831  0.0464
 5581TIP3    H142854   6.152   0.401   5.789 -0.6038 -0.9018 -1.6982
 5581TIP3    H242855   6.288   0.341   5.758 -0.0033 -1.0396  0.9455
 5582TIP3   OH242856   5.485   7.069   5.818 -0.0973 -0.5938  0.1334
 5582TIP3    H142857   5.479   7.007   5.890 -0.8424 -0.2669  0.3658
 5582TIP3    H242858   5.403   7.119   5.822  0.4012  0.2783 -0.1616
 5583TIP3   OH242859   0.101   2.053   6.814 -0.4252 -0.2315 -0.4010
 5583TIP3    H142860   0.053   2.130   6.843 -1.4248 -1.0307  0.1444
 5583TIP3    H242861   0.103   1.995   6.890 -0.2665 -1.0210 -0.9854
 5584TIP3   OH242862   0.703   2.308   5.471 -0.0776  0.5580 -0.1659
 5584TIP3    H142863   0.761   2.384   5.484 -0.6940  1.1733 -0.9197
 5584TIP3    H242864   0.761   2.233   5.476  0.7860  1.1599 -0.8167
 5585TIP3   OH242865   2.813   0.215   0.546 -0.1825 -0.1677 -0.4925
 5585TIP3    H142866   2.846   0.282   0.605  0.9618 -0.9487 -0.2076
 5585TIP3    H242867   2.748   0.167   0.598 -1.0239  0.7223 -0.7085
 5586TIP3   OH242868   1.076   6.791   6.600  0.2366 -0.2081  0.1859
 5586TIP3    H142869   1.036   6.710   6.569  0.4903 -1.6716  3.2912
 5586TIP3    H242870   1.042   6.859   6.542 -0.5548 -2.4187 -2.0873
 5587TIP3   OH242871   5.634   4.268   7.518 -0.3008 -0.1547  0.4264
 5587TIP3    H142872   5.545   4.265   7.554 -0.7305  0.4969 -0.5510
 5587TIP3    H242873   5.688   4.222   7.583 -1.5752 -1.8206  0.3434
 5588TIP3   OH242874   3.657   3.444   6.090  0.3922 -0.2894  0.3954
 5588TIP3    H142875   3.710   3.467   6.014  0.6529  0.0440  0.6783
 5588TIP3    H242876   3.691   3.360   6.118 -1.0315 -1.4437 -1.0765
 5589TIP3   OH242877   4.414   8.107   0.598  0.0165  0.2753 -0.0624
 5589TIP3    H142878   4.423   8.145   0.685 -1.8380  1.7557 -0.4420
 5589TIP3    H242879   4.504   8.101   0.565  0.8215 -0.9608  2.1631
 5590TIP3   OH242880   5.255   3.128   6.943  0.2578 -0.7490 -0.0466
 5590TIP3    H142881   5.265   3.140   6.849 -1.5464  0.7797 -0.1044
 5590TIP3    H242882   5.325   3.066   6.967  0.5652 -1.4256 -2.4067
 5591TIP3   OH242883   2.805   1.808   7.660  0.4762 -0.4060  0.9164
 5591TIP3    H142884   2.814   1.781   7.569 -0.5706  1.7106  0.1103
 5591TIP3    H242885   2.852   1.741   7.710  1.0665 -1.6278 -1.1552
 5592TIP3   OH242886   4.223   7.730   6.629  0.3167 -0.2320 -0.5693
 5592TIP3    H142887   4.194   7.694   6.713 -2.1986  0.6563 -0.9713
 5592TIP3    H242888   4.232   7.823   6.645 -0.3142 -0.0351 -1.2962
 5593TIP3   OH242889   3.024   7.715   6.844 -0.6571 -0.1323  0.2749
 5593TIP3    H142890   2.990   7.650   6.906 -0.3591 -2.6782 -2.0051
 5593TIP3    H242891   2.948   7.767   6.819 -1.4009 -1.0621  0.5464
 5594TIP3   OH242892   7.622   1.211   5.979  0.0333  0.1478 -0.2416
 5594TIP3    H142893   7.704   1.259   5.964  0.0198  0.5190  0.7474
 5594TIP3    H242894   7.556   1.280   5.990 -0.4314 -0.1545 -1.1339
 5595TIP3   OH242895   6.341   3.955   6.973 -0.1262  0.2556  0.3716
 5595TIP3    H142896   6.390   3.875   6.992 -0.0261  0.5080  1.2130
 5595TIP3    H242897   6.249   3.930   6.980 -0.0925  0.3494  1.2650
 5596TIP3   OH242898   6.682   1.101   1.225 -0.2692  0.0195 -0.0466
 5596TIP3    H142899   6.595   1.092   1.185  0.0841 -1.5486 -0.5327
 5596TIP3    H242900   6.726   1.167   1.171 -1.2250  1.0690  0.3911
 5597TIP3   OH242901   8.094   4.913   6.739 -0.0080 -0.1253  0.4916
 5597TIP3    H142902   8.030   4.842   6.730 -0.6252  0.6300 -2.1639
 5597TIP3    H242903   8.041   4.993   6.739  0.8046  0.5552 -2.4179
 5598TIP3   OH242904   4.991   0.734   1.661 -0.0985  0.4448  0.0236
 5598TIP3    H142905   4.948   0.771   1.737  0.8106 -1.1982  1.3934
 5598TIP3    H242906   5.051   0.668   1.696  2.6775  1.7676 -1.8377
 5599TIP3   OH242907   8.089   0.208   6.334  0.9479 -0.2355 -0.1090
 5599TIP3    H142908   8.063   0.281   6.278 -0.2525 -0.1665  0.5038
 5599TIP3    H242909   8.149   0.157   6.280  0.8393  0.5350 -0.9858
 5600TIP3   OH242910   4.769   3.378   0.345  0.3342 -0.6181 -0.1618
 5600TIP3    H142911   4.791   3.330   0.265 -1.0490 -3.6743  1.0938
 5600TIP3    H242912   4.691   3.429   0.321  2.2443  1.7570 -1.7265
 5601TIP3   OH242913   4.084   8.080   7.192  0.0069 -0.0932 -0.3780
 5601TIP3    H142914   4.090   8.129   7.274  0.8997 -0.6461 -0.0940
 5601TIP3    H242915   4.048   8.142   7.129 -2.2375 -0.1122  0.7777
 5602TIP3   OH242916   6.390   0.159   1.704  0.2273  0.4294 -0.2818
 5602TIP3    H142917   6.434   0.131   1.624  0.9094  1.1776 -0.1813
 5602TIP3    H242918   6.334   0.086   1.728 -1.9671  1.0980 -2.8633
 5603TIP3   OH242919   4.293   5.490   7.335 -0.0970 -0.2591  0.9636
 5603TIP3    H142920   4.371   5.478   7.389 -0.3598 -0.3970  1.3152
 5603TIP3    H242921   4.265   5.401   7.313  0.5575 -0.1948 -0.1989
 5604TIP3   OH242922   5.426   5.727   1.177  0.1077 -0.4665  0.2717
 5604TIP3    H142923   5.522   5.730   1.180  0.1164  0.6392 -0.6698
 5604TIP3    H242924   5.406   5.634   1.165  0.8634 -1.3933  4.6006
 5605TIP3   OH242925   1.934   0.546   0.182 -0.1285  0.1927 -0.5925
 5605TIP3    H142926   1.910   0.466   0.134  0.0723 -1.5651  2.0243
 5605TIP3    H242927   2.004   0.518   0.241  0.7062  2.6114 -0.3353
 5606TIP3   OH242928   4.836   6.203   1.899  0.9289 -0.2220  0.0800
 5606TIP3    H142929   4.822   6.123   1.849  0.3285  0.0329 -0.1649
 5606TIP3    H242930   4.814   6.180   1.989  0.5528 -0.2744 -0.0263
 5607TIP3   OH242931   4.740   5.292   6.096 -0.0433 -0.3473 -0.6817
 5607TIP3    H142932   4.745   5.334   6.010 -1.5071  0.8537 -0.2247
 5607TIP3    H242933   4.811   5.331   6.146  0.4444 -0.6118 -1.1601
 5608TIP3   OH242934   1.496   2.237   5.242 -0.3801 -0.2002  0.0196
 5608TIP3    H142935   1.413   2.212   5.284 -0.5719 -0.1776 -0.3429
 5608TIP3    H242936   1.563   2.207   5.303 -0.6769  2.3980  1.7923
 5609TIP3   OH242937   5.451   4.471   5.282  0.0218  0.2675  0.7670
 5609TIP3    H142938   5.545   4.470   5.299  0.0078 -0.4791  0.8086
 5609TIP3    H242939   5.439   4.418   5.204 -0.4877 -0.6583  1.4525
 5610TIP3   OH242940   4.965   7.496   6.329 -0.0015  0.6450 -0.8175
 5610TIP3    H142941   4.973   7.425   6.267 -0.3329 -1.2547  1.1966
 5610TIP3    H242942   4.882   7.538   6.308 -0.4853 -0.4616 -1.1803
 5611TIP3   OH242943   4.495   0.488   5.174  0.6986  0.3730 -0.1250
 5611TIP3    H142944   4.439   0.560   5.143  1.2180  0.6795 -0.3683
 5611TIP3    H242945   4.509   0.507   5.267  0.5445  0.3969 -0.1072
 5612TIP3   OH242946   7.456   7.695   1.835 -0.1303  0.0671 -0.2561
 5612TIP3    H142947   7.532   7.741   1.870 -0.3132  0.7063 -0.6850
 5612TIP3    H242948   7.490   7.611   1.807  0.2282 -0.0338  0.4501
 5613TIP3   OH242949   6.341   7.255   0.679  0.6677 -0.0165 -0.2860
 5613TIP3    H142950   6.374   7.181   0.730 -1.4509 -0.7815  0.0893
 5613TIP3    H242951   6.307   7.215   0.598  0.2145  0.6455 -0.4314
 5614TIP3   OH242952   5.576   5.361   1.334 -0.2392  0.0255 -0.3972
 5614TIP3    H142953   5.615   5.275   1.315  0.4017  0.4065 -0.8465
 5614TIP3    H242954   5.513   5.343   1.404 -0.2328 -0.8391 -0.5966
 5615TIP3   OH242955   6.050   3.257   6.892  0.2163 -0.2711 -0.6842
 5615TIP3    H142956   6.019   3.343   6.920 -1.4971 -0.4402 -1.8817
 5615TIP3    H242957   5.989   3.231   6.823  1.3888 -1.9505 -1.1608
 5616TIP3   OH242958   3.659   6.073   6.562 -0.2199 -0.4836  0.4557
 5616TIP3    H142959   3.659   5.978   6.577 -0.5461 -0.4731  0.5406
 5616TIP3    H242960   3.568   6.093   6.540 -0.0125 -0.2979 -0.2609
 5617TIP3   OH242961   0.916   3.375   1.415 -0.4086  0.0877  0.9050
 5617TIP3    H142962   0.980   3.313   1.449 -1.5029 -0.4839  2.0023
 5617TIP3    H242963   0.962   3.421   1.344  1.5471  0.4205  2.2953
 5618TIP3   OH242964   7.831   0.121   6.242  0.2982 -0.1917 -0.2324
 5618TIP3    H142965   7.863   0.207   6.215  0.3875  0.4419  1.6812
 5618TIP3    H242966   7.880   0.102   6.322 -0.0428 -1.8314 -0.3886
 5619TIP3   OH242967   6.064   1.661   0.093 -0.6187  0.2416  0.2233
 5619TIP3    H142968   6.124   1.659   0.168 -2.3805 -0.9313  1.6697
 5619TIP3    H242969   6.103   1.599   0.031 -0.6472 -1.0221  1.4215
 5620TIP3   OH242970   4.825   6.528   7.919  0.5378  0.0372 -0.1198
 5620TIP3    H142971   4.869   6.485   7.846  2.9358  0.4246  0.9782
 5620TIP3    H242972   4.879   6.605   7.937 -0.9581  0.8795  0.9911
 5621TIP3   OH242973   3.360   5.282   6.337 -0.1297 -0.5790  0.0315
 5621TIP3    H142974   3.346   5.230   6.416 -0.2728 -0.5002  0.0568
 5621TIP3    H242975   3.410   5.224   6.279  0.1323 -0.5738  0.2491
 5622TIP3   OH242976   4.349   5.143   0.441 -0.0408  0.2020  0.3375
 5622TIP3    H142977   4.410   5.206   0.403  2.2854 -1.6783  0.6640
 5622TIP3    H242978   4.303   5.106   0.365  2.5461 -1.5116 -0.5698
 5623TIP3   OH242979   8.102   1.591   6.830  0.6994 -0.0930  0.0814
 5623TIP3    H142980   8.143   1.666   6.873  1.0311 -0.3138  0.1520
 5623TIP3    H242981   8.030   1.629   6.779  0.1097  0.1484  1.0563
 5624TIP3   OH242982   4.953   3.502   6.229 -0.1250  0.0115 -0.0090
 5624TIP3    H142983   5.000   3.425   6.262 -0.7393 -0.9148 -1.2398
 5624TIP3    H242984   4.991   3.518   6.143 -0.8752  0.3154 -0.2845
 5625TIP3   OH242985   3.793   0.500   5.244 -0.3597  0.3037  0.6761
 5625TIP3    H142986   3.702   0.471   5.241 -0.2201 -0.0145 -0.7227
 5625TIP3    H242987   3.787   0.595   5.249 -0.7717  0.2377  2.9241
 5626TIP3   OH242988   5.188   6.177   0.261 -0.4039 -0.1912  0.7694
 5626TIP3    H142989   5.230   6.096   0.235 -0.3022 -0.2836  1.2083
 5626TIP3    H242990   5.252   6.219   0.319 -0.7366 -0.1273  1.0916
 5627TIP3   OH242991   4.911   4.395   7.151  0.6901  0.0033 -0.2057
 5627TIP3    H142992   4.895   4.316   7.100 -0.9681  0.4074 -0.3552
 5627TIP3    H242993   5.006   4.407   7.148  0.7751 -0.8494 -1.8729
 5628TIP3   OH242994   7.416   3.256   1.238  0.3129 -0.3613 -0.0630
 5628TIP3    H142995   7.336   3.282   1.284  1.9092  1.3170  1.9762
 5628TIP3    H242996   7.409   3.296   1.152  0.9829  4.1447  1.6917
 5629TIP3   OH242997   1.862   0.421   0.765  0.6229 -0.0284  0.1216
 5629TIP3    H142998   1.828   0.508   0.744  0.3477 -0.3722 -0.9694
 5629TIP3    H242999   1.902   0.391   0.683 -0.1532 -1.3170  0.1901
 5630TIP3   OH243000   5.945   5.881   2.938  0.9552 -0.5307 -0.3379
 5630TIP3    H143001   5.874   5.869   2.875  0.0029 -0.4334  0.6845
 5630TIP3    H243002   5.985   5.964   2.914  0.7658 -0.6210 -0.9736
 5631TIP3   OH243003   1.898   3.823   2.570  0.2458 -0.1543  0.3755
 5631TIP3    H143004   1.922   3.735   2.600 -0.4341 -0.9692 -1.3886
 5631TIP3    H243005   1.929   3.827   2.480 -2.4346  0.2748 -0.5905
 5632TIP3   OH243006   0.184   0.335   1.100 -0.2522  0.0536  1.0613
 5632TIP3    H143007   0.125   0.373   1.165  0.0984 -0.3329  1.6032
 5632TIP3    H243008   0.139   0.257   1.068 -0.8879  0.7888  0.0827
 5633TIP3   OH243009   7.171   6.819   7.846 -0.0706  0.4029  0.2330
 5633TIP3    H143010   7.224   6.818   7.926 -0.9667 -0.3840  0.8451
 5633TIP3    H243011   7.085   6.787   7.874 -0.2136 -0.5610 -1.1685
 5634TIP3   OH243012   4.181   3.759   1.490  0.1098  0.0434 -0.2052
 5634TIP3    H143013   4.101   3.764   1.438 -0.5718 -0.3658  0.7605
 5634TIP3    H243014   4.167   3.820   1.562  1.4529  1.3595 -0.9853
 5635TIP3   OH243015   1.215   7.657   7.178 -0.0464 -0.1770  0.0691
 5635TIP3    H143016   1.217   7.650   7.274  1.0925  1.0564  0.1579
 5635TIP3    H243017   1.297   7.700   7.155 -0.4408 -0.1831 -1.4441
 5636TIP3   OH243018   6.614   6.966   1.486 -0.1996  0.6397  0.2159
 5636TIP3    H143019   6.568   6.883   1.473  0.0654  0.2488  1.6208
 5636TIP3    H243020   6.550   7.023   1.527  0.1062  0.5805  0.7868
 5637TIP3   OH243021   1.505   4.656   1.369 -0.6277  0.1734 -0.3731
 5637TIP3    H143022   1.475   4.691   1.453 -1.0119  3.1233 -1.6269
 5637TIP3    H243023   1.581   4.602   1.392 -0.9676  0.5511  1.8985
 5638TIP3   OH243024   0.550   5.684   6.399 -0.1081  0.5921  0.2209
 5638TIP3    H143025   0.606   5.760   6.379 -1.1040  0.7720 -2.2757
 5638TIP3    H243026   0.595   5.640   6.471  2.3683  1.6275 -0.5612
 5639TIP3   OH243027   6.564   0.495   1.225  0.2502 -0.4211  0.3600
 5639TIP3    H143028   6.555   0.587   1.250 -1.9331 -1.2054  2.9883
 5639TIP3    H243029   6.657   0.477   1.235  1.0596  1.8445 -1.9138
 5640TIP3   OH243030   3.664   5.421   0.245 -0.5728  0.3624  0.2875
 5640TIP3    H143031   3.746   5.387   0.209 -0.9242  1.1235 -1.3200
 5640TIP3    H243032   3.611   5.443   0.168 -0.9455  3.1195  1.2087
 5641TIP3   OH243033   4.250   7.878   0.529 -0.3397  0.6869 -0.1187
 5641TIP3    H143034   4.301   7.959   0.527 -0.7322  0.9307 -0.7386
 5641TIP3    H243035   4.264   7.839   0.442 -0.2680  0.1629  0.1240
 5642TIP3   OH243036   1.811   7.577   1.577  0.4370  0.3920 -0.2556
 5642TIP3    H143037   1.848   7.665   1.584 -2.4979  1.6848  0.2903
 5642TIP3    H243038   1.790   7.552   1.667 -1.9386  0.6708 -0.6734
 5643TIP3   OH243039   0.327   1.989   7.063 -0.4366  0.4075 -0.1887
 5643TIP3    H143040   0.378   2.069   7.053  0.3499  0.0676  0.9515
 5643TIP3    H243041   0.285   1.998   7.149  1.2237 -1.2409  0.8537
 5644TIP3   OH243042   4.674   1.634   2.154  0.1677 -0.1365  0.0691
 5644TIP3    H143043   4.597   1.579   2.169 -0.4576  0.8360  0.5367
 5644TIP3    H243044   4.707   1.652   2.242  1.9298 -1.8676 -0.1588
 5645TIP3   OH243045   5.007   5.218   2.451 -0.3026  0.8173 -0.1369
 5645TIP3    H143046   4.983   5.271   2.527  1.7605 -0.1009  1.2518
 5645TIP3    H243047   5.000   5.278   2.377 -1.1960  2.0883  0.9243
 5646TIP3   OH243048   1.365   5.782   6.105  0.8015  0.3782  0.3917
 5646TIP3    H143049   1.406   5.726   6.171  1.2595  0.8300  0.4980
 5646TIP3    H243050   1.424   5.857   6.097 -0.8183  1.8957  1.7962
 5647TIP3   OH243051   7.988   3.978   7.928  0.0172  0.7414  0.4497
 5647TIP3    H143052   8.026   3.893   7.948 -0.2820  0.6261  0.5225
 5647TIP3    H243053   7.990   4.026   8.011 -2.7282 -0.3054  1.2075
 5648TIP3   OH243054   5.546   4.789   1.916  0.0819 -0.1944  0.0443
 5648TIP3    H143055   5.557   4.698   1.944 -0.5861 -0.2721  0.0610
 5648TIP3    H243056   5.535   4.784   1.821  2.3874  0.0724 -0.2921
 5649TIP3   OH243057   7.535   1.053   1.224 -0.2222  0.0373 -0.2637
 5649TIP3    H143058   7.598   1.111   1.182 -0.8693  0.3513 -0.8186
 5649TIP3    H243059   7.453   1.071   1.179 -0.8377  0.0638  0.8444
 5650TIP3   OH243060   1.839   6.266   1.264  0.2734 -0.1818  0.6754
 5650TIP3    H143061   1.861   6.340   1.207 -0.2074  0.5841  1.4596
 5650TIP3    H243062   1.789   6.305   1.335  1.2515 -1.0519  1.8776
 5651TIP3   OH243063   6.913   1.450   7.651 -0.0581 -0.0126  0.7615
 5651TIP3    H143064   6.958   1.470   7.732 -0.4462 -0.9169  1.2239
 5651TIP3    H243065   6.950   1.366   7.623  1.1419  0.9752 -0.8106
 5652TIP3   OH243066   3.426   5.480   7.270 -0.5653 -0.0672 -0.7691
 5652TIP3    H143067   3.356   5.465   7.334 -1.8642 -0.2423 -2.1686
 5652TIP3    H243068   3.497   5.421   7.298 -0.0314  1.6861  1.9396
 5653TIP3   OH243069   6.347   0.288   0.523 -0.1701  0.0232  0.1078
 5653TIP3    H143070   6.292   0.263   0.597  0.0061 -1.3284 -0.1979
 5653TIP3    H243071   6.285   0.299   0.450 -0.1204 -0.8712 -0.0806
 5654TIP3   OH243072   3.611   4.743   7.907 -0.1691 -0.0854 -0.2828
 5654TIP3    H143073   3.597   4.759   8.001 -0.5255 -0.5341 -0.2576
 5654TIP3    H243074   3.702   4.766   7.892 -0.0221 -0.3187  0.2408
 5655TIP3   OH243075   1.953   1.792   7.080 -0.1468 -0.3735 -0.5133
 5655TIP3    H143076   1.992   1.791   7.168  1.0864  0.2896 -1.0285
 5655TIP3    H243077   1.866   1.830   7.093 -0.1554 -0.6909  0.4842
 5656TIP3   OH243078   7.284   3.674   5.825 -0.2364  0.0070 -0.3450
 5656TIP3    H143079   7.337   3.750   5.850  0.1178 -0.7341  1.3542
 5656TIP3    H243080   7.246   3.644   5.908 -0.0523 -1.8949 -0.9170
 5657TIP3   OH243081   2.126   3.542   7.413  0.1372 -0.5464  0.4088
 5657TIP3    H143082   2.189   3.474   7.434 -1.0031 -2.3726 -1.6495
 5657TIP3    H243083   2.150   3.570   7.324  0.5145  1.7410  1.1509
 5658TIP3   OH243084   2.354   3.211   7.925 -0.1456  0.1782  0.1727
 5658TIP3    H143085   2.371   3.288   7.979 -0.5231 -0.4379  1.2142
 5658TIP3    H243086   2.259   3.210   7.915 -0.0678  0.3463 -0.6099
 5659TIP3   OH243087   5.547   3.895   2.853 -0.1499 -0.9667 -0.7889
 5659TIP3    H143088   5.458   3.884   2.820 -1.0053 -0.2217  1.1393
 5659TIP3    H243089   5.579   3.974   2.808 -0.5627 -1.0462 -1.2404
 5660TIP3   OH243090   0.555   2.971   6.285 -0.7852  0.3944 -0.0674
 5660TIP3    H143091   0.469   3.007   6.304 -0.2951  1.6355 -0.0800
 5660TIP3    H243092   0.597   2.961   6.371 -0.8859 -0.0640 -0.0706
 5661TIP3   OH243093   5.432   6.163   1.191  0.0294  0.1641  0.1973
 5661TIP3    H143094   5.380   6.157   1.111  0.7082 -0.4086 -0.2143
 5661TIP3    H243095   5.515   6.120   1.169  0.2699  0.1005  1.1728
 5662TIP3   OH243096   3.278   7.756   1.001 -0.5737  0.0777 -0.2238
 5662TIP3    H143097   3.343   7.687   1.010  0.3402  0.9432  0.0028
 5662TIP3    H243098   3.268   7.769   0.906 -1.3617 -0.9078 -0.2891
 5663TIP3   OH243099   2.795   4.858   0.403  0.0262 -0.2874 -0.5978
 5663TIP3    H143100   2.749   4.779   0.428  2.9468 -1.0610  3.2520
 5663TIP3    H243101   2.864   4.828   0.344  0.1863 -0.3620 -0.3730
 5664TIP3   OH243102   7.859   1.790   0.666 -0.3007  0.5740 -0.1313
 5664TIP3    H143103   7.797   1.799   0.738  0.4675 -0.1275  0.6342
 5664TIP3    H243104   7.944   1.811   0.704  0.3789 -1.5106 -0.3291
 5665TIP3   OH243105   1.974   7.926   0.915  0.1661  0.3685 -0.3205
 5665TIP3    H143106   2.062   7.933   0.878  0.2079 -3.2759 -1.2600
 5665TIP3    H243107   1.921   7.987   0.862  1.5530  0.3671 -1.7889
 5666TIP3   OH243108   5.760   6.612   0.132  0.4511 -0.4525  0.3102
 5666TIP3    H143109   5.848   6.579   0.115  0.4064  0.1174 -1.1700
 5666TIP3    H243110   5.748   6.682   0.068 -1.6196 -1.5123 -0.5660
 5667TIP3   OH243111   5.920   6.909   0.089 -0.0644  0.1148 -0.6881
 5667TIP3    H143112   5.950   6.917   0.180 -1.2803 -0.9519 -0.1607
 5667TIP3    H243113   5.843   6.967   0.084 -0.1065  0.0334 -0.9915
 5668TIP3   OH243114   1.504   5.853   7.868  0.0292 -0.1829 -0.3815
 5668TIP3    H143115   1.536   5.942   7.880 -1.5712  0.3969 -0.0293
 5668TIP3    H243116   1.551   5.801   7.933  0.8250  0.4531 -0.4459
 5669TIP3   OH243117   6.441   2.304   7.514  0.5822  0.6671 -0.1809
 5669TIP3    H143118   6.491   2.259   7.583 -0.9110 -0.6155  0.1055
 5669TIP3    H243119   6.365   2.249   7.499  0.4448  1.3504 -2.3153
 5670TIP3   OH243120   6.484   5.158   5.521 -0.2731 -0.0016 -0.6736
 5670TIP3    H143121   6.532   5.103   5.582 -2.2775  1.9264  3.0263
 5670TIP3    H243122   6.423   5.099   5.478  1.4978 -1.5107 -1.2067
 5671TIP3   OH243123   8.063   6.607   0.752 -0.6499 -0.0144  0.1979
 5671TIP3    H143124   7.977   6.603   0.793  1.0215 -1.7819  4.0693
 5671TIP3    H243125   8.090   6.698   0.763 -0.7604 -0.1696  2.1147
 5672TIP3   OH243126   3.362   2.721   1.037  0.6383 -0.3275 -0.1459
 5672TIP3    H143127   3.348   2.728   0.942  1.1361  0.7164 -0.1479
 5672TIP3    H243128   3.318   2.639   1.061  1.8292 -1.4383 -1.5289
 5673TIP3   OH243129   6.077   6.930   0.955  0.0610  0.0564  0.0799
 5673TIP3    H143130   6.094   6.839   0.930  1.4102  0.4977 -0.7310
 5673TIP3    H243131   6.083   6.930   1.050  1.3566 -0.4880  0.0240
 5674TIP3   OH243132   4.930   3.943   7.423 -0.0708  0.1524 -0.6802
 5674TIP3    H143133   4.994   3.993   7.473 -1.2991 -0.3675  1.5330
 5674TIP3    H243134   4.845   3.972   7.455 -0.9317 -0.4685 -2.2600
 5675TIP3   OH243135   8.092   0.712   0.338 -0.3657  0.1746  0.0546
 5675TIP3    H143136   8.045   0.721   0.421  0.5036 -0.0443  0.5845
 5675TIP3    H243137   8.121   0.621   0.337  0.0529  0.3122 -0.2606
 5676TIP3   OH243138   4.852   5.045   1.197  0.2227  0.2619  0.1359
 5676TIP3    H143139   4.835   4.963   1.150 -0.1107  1.0202 -1.0911
 5676TIP3    H243140   4.794   5.109   1.157 -0.5309  0.8208  2.0123
 5677TIP3   OH243141   7.282   2.477   0.368 -0.6027  0.1598 -0.1175
 5677TIP3    H143142   7.312   2.438   0.450 -0.4665  0.9374  0.2142
 5677TIP3    H243143   7.287   2.406   0.304 -0.1516 -0.3013  0.4203
 5678TIP3   OH243144   6.606   3.512   7.895 -0.0933 -0.7245 -0.4214
 5678TIP3    H143145   6.557   3.561   7.829  1.0543 -0.8027 -1.3627
 5678TIP3    H243146   6.564   3.535   7.978 -1.5233 -0.5685 -1.1501
 5679TIP3   OH243147   4.871   0.300   6.890  0.4006 -0.3152 -0.2155
 5679TIP3    H143148   4.824   0.310   6.973  2.4501 -1.5763  1.1955
 5679TIP3    H243149   4.852   0.380   6.842 -1.5198  0.0933  1.1013
 5680TIP3   OH243150   5.176   4.400   5.712  0.1022  0.0534 -0.7578
 5680TIP3    H143151   5.138   4.473   5.760 -0.4612 -1.4392  1.1948
 5680TIP3    H243152   5.116   4.384   5.640 -0.9492  0.1571  0.0724
 5681TIP3   OH243153   4.078   3.629   5.861 -0.2096  0.1570  0.3924
 5681TIP3    H143154   4.060   3.655   5.770  0.1640  0.7531  0.4795
 5681TIP3    H243155   4.116   3.708   5.901  2.1915 -0.8759  0.3285
 5682TIP3   OH243156   0.404   6.721   7.868  0.9869  0.6822  0.0106
 5682TIP3    H143157   0.480   6.780   7.869  0.2263  1.6902  1.3525
 5682TIP3    H243158   0.355   6.745   7.946 -0.4738 -0.2740 -0.5925
 5683TIP3   OH243159   7.125   0.688   6.932  0.0956 -0.0937 -0.2725
 5683TIP3    H143160   7.065   0.695   6.858 -1.1931  0.9844  0.8193
 5683TIP3    H243161   7.166   0.774   6.938 -1.6882  0.7115  1.7268
 5684TIP3   OH243162   5.142   6.750   0.607 -0.4839 -0.6445  0.1752
 5684TIP3    H143163   5.159   6.819   0.542  1.0268 -0.0250  1.1737
 5684TIP3    H243164   5.116   6.674   0.555  0.3514 -0.0660 -1.1451
 5685TIP3   OH243165   1.382   2.882   2.262  0.6704  0.4310 -0.0235
 5685TIP3    H143166   1.405   2.792   2.282  0.5642  0.4341  0.1205
 5685TIP3    H243167   1.445   2.935   2.311 -0.1766  0.4527  1.0927
 5686TIP3   OH243168   4.763   5.987   1.709  0.0474  0.1458  0.3783
 5686TIP3    H143169   4.768   5.893   1.721 -0.8445 -0.0203 -0.4287
 5686TIP3    H243170   4.783   6.001   1.617  1.0827  0.8374  0.6932
 5687TIP3   OH243171   2.249   4.638   7.509 -0.2790  0.4841 -0.4683
 5687TIP3    H143172   2.230   4.576   7.579  0.5478  2.1933  1.3462
 5687TIP3    H243173   2.301   4.707   7.550  0.5737  1.3932 -2.8477
 5688TIP3   OH243174   4.429   2.367   7.011  0.2099  0.3829  0.0979
 5688TIP3    H143175   4.429   2.462   7.021  1.6438  0.2082  2.7678
 5688TIP3    H243176   4.445   2.334   7.099 -0.2401 -2.3573 -0.7576
 5689TIP3   OH243177   6.955   2.248   6.932  0.1735 -0.0312 -0.2415
 5689TIP3    H143178   6.911   2.293   7.004  2.5607 -2.1924  2.8267
 5689TIP3    H243179   7.035   2.300   6.916  0.1384 -0.1067 -0.6919
 5690TIP3   OH243180   0.460   7.133   1.030 -0.2001  0.0389  0.3005
 5690TIP3    H143181   0.431   7.152   0.940 -2.8016 -0.3767  0.9821
 5690TIP3    H243182   0.517   7.056   1.021 -0.0955  0.2419 -1.0170
 5691TIP3   OH243183   0.420   7.069   0.745 -0.0988  0.4800 -0.0983
 5691TIP3    H143184   0.340   7.047   0.698 -0.8478  1.5319  0.6409
 5691TIP3    H243185   0.447   7.154   0.709  1.6440 -0.5932 -1.5113
 5692TIP3   OH243186   0.433   0.058   0.871  0.2322  0.1705 -0.1911
 5692TIP3    H143187   0.438   0.139   0.922  1.2205  0.1652 -0.2613
 5692TIP3    H243188   0.523   0.042   0.843  0.0679 -1.0482 -0.0373
 5693TIP3   OH243189   5.913   6.857   0.646  0.2489 -0.5604  0.5733
 5693TIP3    H143190   5.832   6.804   0.644  0.6989 -1.2485  0.0765
 5693TIP3    H243191   5.896   6.923   0.713  0.0005 -1.8934  1.8937
 5694TIP3   OH243192   0.137   3.043   1.618  0.6583  0.1307  0.0248
 5694TIP3    H143193   0.088   3.092   1.684  1.2176  1.6726 -0.6605
 5694TIP3    H243194   0.229   3.060   1.639  0.8998 -1.3124  0.2490
 5695TIP3   OH243195   4.451   7.182   1.005  0.5681  0.3908  0.4809
 5695TIP3    H143196   4.545   7.172   1.018  0.7785  1.7177  0.1426
 5695TIP3    H243197   4.422   7.235   1.079 -0.0389 -0.4943  0.9011
 5696TIP3   OH243198   4.987   7.197   1.309 -0.0922  0.0968 -1.4043
 5696TIP3    H143199   4.994   7.271   1.370  0.1880  0.3260 -1.7146
 5696TIP3    H243200   5.059   7.139   1.333 -2.1607 -1.6989  0.9957
 5697TIP3   OH243201   3.694   3.018   7.036 -0.1842  0.1946  0.2300
 5697TIP3    H143202   3.621   2.962   7.007  0.6238 -0.9774  0.3847
 5697TIP3    H243203   3.653   3.103   7.054 -1.5470 -0.4867  0.5074
 5698TIP3   OH243204   4.818   4.244   1.735 -0.1750  0.5309 -0.1291
 5698TIP3    H143205   4.797   4.228   1.827 -1.8794  1.1308 -0.3714
 5698TIP3    H243206   4.741   4.291   1.701 -0.4038 -1.2609 -2.3144
 5699TIP3   OH243207   3.864   6.927   0.504  0.4488  0.1564  0.4718
 5699TIP3    H143208   3.876   6.998   0.441 -2.2477 -0.3338 -0.7378
 5699TIP3    H243209   3.840   6.972   0.586  1.4002  0.6986  0.4656
 5700TIP3   OH243210   2.823   5.816   1.742 -0.0327  0.0557 -0.2430
 5700TIP3    H143211   2.880   5.787   1.813  0.2186 -0.7179 -0.7547
 5700TIP3    H243212   2.734   5.807   1.778  0.0478 -1.1519 -0.3104
 5701TIP3   OH243213   2.763   1.529   0.092  0.5784 -0.2598  0.1431
 5701TIP3    H143214   2.855   1.537   0.065  0.1076  2.8320 -0.8772
 5701TIP3    H243215   2.760   1.567   0.179  0.3557 -1.0754  0.5043
 5702TIP3   OH243216   7.586   2.613   6.949 -0.4084 -0.0685 -0.1929
 5702TIP3    H143217   7.492   2.614   6.969 -0.1430  0.4859  1.1342
 5702TIP3    H243218   7.599   2.534   6.897 -1.4058 -0.8609  0.7125
 5703TIP3   OH243219   7.501   4.612   6.899 -0.5287 -0.5835  0.0375
 5703TIP3    H143220   7.506   4.517   6.904  1.5282 -0.5913 -0.9712
 5703TIP3    H243221   7.503   4.631   6.805 -0.7717  0.4517  0.2329
 5704TIP3   OH243222   4.113   5.937   6.150 -0.4493 -0.1957  0.5756
 5704TIP3    H143223   4.138   5.875   6.081  2.2283  0.7508  0.6087
 5704TIP3    H243224   4.052   5.997   6.106 -0.1238 -0.6171 -0.4871
 5705TIP3   OH243225   3.418   5.849   6.023  0.1070 -0.1499  0.3069
 5705TIP3    H143226   3.501   5.821   5.985 -0.3455  0.8132 -1.4825
 5705TIP3    H243227   3.429   5.943   6.040 -0.2235 -0.2581  1.1856
 5706TIP3   OH243228   2.545   5.918   0.884  0.9945 -0.5110 -0.0012
 5706TIP3    H143229   2.598   5.981   0.932 -0.6649  2.6285 -1.9397
 5706TIP3    H243230   2.609   5.869   0.832  2.2415  1.3864 -0.3722
 5707TIP3   OH243231   5.419   5.327   0.133 -0.4600 -0.5389  0.1480
 5707TIP3    H143232   5.490   5.263   0.135 -0.9189 -1.0395  1.8397
 5707TIP3    H243233   5.345   5.280   0.096 -0.2009 -0.2937 -0.7189
 5708TIP3   OH243234   3.605   6.694   1.760 -0.2473  0.4307 -0.1928
 5708TIP3    H143235   3.673   6.761   1.765 -0.5772  0.7612 -0.0674
 5708TIP3    H243236   3.524   6.744   1.746 -0.6064  0.1114  0.7148
 5709TIP3   OH243237   1.064   7.907   0.700  0.2232 -0.0171 -0.4169
 5709TIP3    H143238   1.083   7.949   0.616 -0.1189  0.0416 -0.4665
 5709TIP3    H243239   1.059   7.814   0.678  1.5610 -0.1616 -0.2052
 5710TIP3   OH243240   4.786   6.137   1.430 -0.4850 -0.1653  0.1447
 5710TIP3    H143241   4.783   6.074   1.358 -1.3324  0.0408 -0.0125
 5710TIP3    H243242   4.879   6.152   1.445 -0.2766 -1.2945  0.0421
 5711TIP3   OH243243   4.179   1.224   6.563 -0.0345 -0.3580  0.2066
 5711TIP3    H143244   4.257   1.199   6.513 -0.8955 -0.2299 -1.2772
 5711TIP3    H243245   4.188   1.319   6.575 -0.2456 -0.2375 -0.5192
 5712TIP3   OH243246   3.060   0.574   7.618  0.3125  0.1806  0.1734
 5712TIP3    H143247   3.065   0.482   7.644  1.6423  0.0644 -0.4548
 5712TIP3    H243248   2.970   0.584   7.587  0.5395 -1.3011 -1.1226
 5713TIP3   OH243249   3.851   4.135   1.177 -0.3856 -0.8938  0.4420
 5713TIP3    H143250   3.920   4.200   1.190 -0.6473 -0.4225 -0.4574
 5713TIP3    H243251   3.892   4.066   1.125 -0.9908  0.1688 -1.5644
 5714TIP3   OH243252   1.409   5.345   6.522 -0.2633  0.0589  0.2160
 5714TIP3    H143253   1.356   5.371   6.447  0.1774 -0.1238 -0.1667
 5714TIP3    H243254   1.397   5.416   6.585 -0.2134  0.4920 -0.2450
 5715TIP3   OH243255   1.476   5.641   0.487 -0.8216 -0.5300  0.0929
 5715TIP3    H143256   1.495   5.551   0.513 -0.8895 -0.9544 -1.2626
 5715TIP3    H243257   1.449   5.635   0.396 -2.1661  0.7115  0.3597
 5716TIP3   OH243258   7.556   6.263   7.704 -0.0983  0.6892 -0.4349
 5716TIP3    H143259   7.629   6.265   7.641  0.5133 -0.9408  0.1749
 5716TIP3    H243260   7.478   6.257   7.650  0.3989 -0.3373 -1.0637
 5717TIP3   OH243261   1.270   7.249   0.020 -0.0553  0.1291  0.1146
 5717TIP3    H143262   1.195   7.275   0.073 -0.1723  0.2689 -0.1151
 5717TIP3    H243263   1.232   7.195  -0.050  0.0628  0.1612  0.0246
 5718TIP3   OH243264   7.056   7.818   2.440 -0.2685  0.0771 -0.4282
 5718TIP3    H143265   7.123   7.836   2.506 -0.4083 -0.1485 -0.2258
 5718TIP3    H243266   6.988   7.884   2.456 -1.3007 -1.2753  1.0221
 5719TIP3   OH243267   2.303   6.258   0.044 -0.2870  0.2247 -0.0278
 5719TIP3    H143268   2.385   6.209   0.054 -0.0889 -0.2139 -2.9591
 5719TIP3    H243269   2.331   6.345   0.016 -0.7922  0.1429 -0.8061
 5720TIP3   OH243270   0.479   4.785   0.031  0.0772  0.4826 -0.1920
 5720TIP3    H143271   0.417   4.754  -0.035 -0.2512  0.4415  0.1348
 5720TIP3    H243272   0.505   4.707   0.079 -2.5776  0.9229  2.2135
 5721TIP3   OH243273   1.492   4.700   1.672 -0.1957 -0.5637  0.0937
 5721TIP3    H143274   1.507   4.708   1.766  1.1591  0.4719 -0.1650
 5721TIP3    H243275   1.435   4.624   1.663 -1.0980 -0.1367  1.8035
 5722TIP3   OH243276   0.428   3.787   0.770  0.8067  0.5773  0.2844
 5722TIP3    H143277   0.377   3.783   0.689 -0.3161  0.9240  0.9489
 5722TIP3    H243278   0.501   3.846   0.750 -0.0058  1.4556 -0.1974
 5723TIP3   OH243279   5.714   6.438   7.284 -0.1618 -0.0742  0.6306
 5723TIP3    H143280   5.672   6.429   7.199  0.2247  0.1788  0.4073
 5723TIP3    H243281   5.651   6.404   7.347 -0.7514  0.4334  0.3201
 5724TIP3   OH243282   3.055   0.561   0.275  0.6446 -0.0873  1.2919
 5724TIP3    H143283   3.091   0.650   0.272 -0.0882  0.2021 -0.6612
 5724TIP3    H243284   2.967   0.572   0.309  0.0438  0.1708 -0.2736
 5725TIP3   OH243285   5.398   5.347   7.245  0.6117  0.3371 -0.0141
 5725TIP3    H143286   5.468   5.307   7.297  0.0458  0.3559  0.7843
 5725TIP3    H243287   5.318   5.304   7.277  0.0718  1.5997  0.3655
 5726TIP3   OH243288   2.861   8.002   6.086  0.0165  0.3765  0.1907
 5726TIP3    H143289   2.948   8.037   6.105  0.5086 -0.9617  0.5230
 5726TIP3    H243290   2.855   7.922   6.138 -0.7622 -0.4262 -1.0732
 5727TIP3   OH243291   1.938   6.503   0.499  0.1909 -0.1859  0.2930
 5727TIP3    H143292   1.953   6.583   0.549 -1.6382 -0.1880  0.9162
 5727TIP3    H243293   1.919   6.533   0.410 -0.3622  0.0774  0.4960
 5728TIP3   OH243294   7.515   0.741   2.516  0.2133  0.7921 -0.3655
 5728TIP3    H143295   7.601   0.698   2.515 -0.4700 -0.6614 -0.7898
 5728TIP3    H243296   7.458   0.678   2.561 -0.7130  1.5349 -0.4845
 5729TIP3   OH243297   6.281   6.936   1.477  0.5151  0.1237  0.1499
 5729TIP3    H143298   6.330   7.013   1.450  0.1237  0.0375 -0.8621
 5729TIP3    H243299   6.332   6.862   1.445  0.0616  0.0175 -0.3405
 5730TIP3   OH243300   0.462   5.254   1.473 -0.9512 -0.2301  0.5383
 5730TIP3    H143301   0.478   5.279   1.382 -2.5789  1.5594  0.6798
 5730TIP3    H243302   0.413   5.172   1.467 -2.6930  0.8117 -0.3282
 5731TIP3   OH243303   1.192   3.338   0.055  0.1469  0.2047 -0.1147
 5731TIP3    H143304   1.137   3.260   0.045  0.4389 -0.1703  1.0438
 5731TIP3    H243305   1.273   3.306   0.094  0.6519  0.9598 -0.5110
 5732TIP3   OH243306   4.785   3.853   1.238  0.0418 -0.1007  0.4564
 5732TIP3    H143307   4.879   3.836   1.240 -0.2085 -1.8462 -0.1903
 5732TIP3    H243308   4.746   3.775   1.278 -1.0611  2.2804  4.5985
 5733TIP3   OH243309   7.240   0.350   6.130  0.1848 -0.9670 -0.3690
 5733TIP3    H143310   7.190   0.339   6.211  0.2943 -2.5798 -0.4905
 5733TIP3    H243311   7.200   0.288   6.068  0.2600  0.0651 -1.4804
 5734TIP3   OH243312   5.086   0.123   0.908  0.3144  0.1223 -1.3327
 5734TIP3    H143313   5.039   0.105   0.989 -0.1588 -1.6014 -1.9380
 5734TIP3    H243314   5.122   0.211   0.919 -2.0427  1.0274 -0.3864
 5735TIP3   OH243315   5.139   6.709   7.363 -0.6506  0.1115 -0.3402
 5735TIP3    H143316   5.221   6.715   7.413 -0.0090 -1.3929 -1.1270
 5735TIP3    H243317   5.140   6.620   7.327 -2.6902  0.0359 -0.3099
 5736TIP3   OH243318   5.182   4.829   0.562 -0.5333 -0.2931 -0.7005
 5736TIP3    H143319   5.138   4.878   0.631 -0.6767  0.5706 -1.3864
 5736TIP3    H243320   5.210   4.896   0.499  0.3777 -0.9768 -1.0461
 5737TIP3   OH243321   6.430   0.062   2.079 -0.0919  0.0396 -1.0131
 5737TIP3    H143322   6.414  -0.008   2.016  1.3036  0.3195 -1.7262
 5737TIP3    H243323   6.408   0.024   2.163  3.2794 -2.3304 -0.9914
 5738TIP3   OH243324   0.726   2.988   7.084  0.0013 -0.1434 -0.3146
 5738TIP3    H143325   0.797   3.022   7.139  0.8085 -0.2926 -1.2357
 5738TIP3    H243326   0.753   2.898   7.065 -0.3949 -0.1672 -0.7568
 5739TIP3   OH243327   3.184   7.041   0.292 -0.0053  0.1715  0.0219
 5739TIP3    H143328   3.144   7.000   0.215 -0.5812 -0.8878  0.8492
 5739TIP3    H243329   3.217   6.967   0.344  0.2144  0.8540  0.8767
 5740TIP3   OH243330   6.776   6.071   0.758  0.4080 -0.0693  0.4974
 5740TIP3    H143331   6.839   6.000   0.757  0.4211 -0.0541  0.2101
 5740TIP3    H243332   6.690   6.028   0.751  0.4128 -0.0599  0.3796
 5741TIP3   OH243333   6.307   4.013   1.721 -0.0469 -0.0812  0.1500
 5741TIP3    H143334   6.398   3.988   1.704 -0.1712 -1.0533  0.8086
 5741TIP3    H243335   6.293   3.989   1.812 -0.2786  2.2522  0.7895
 5742TIP3   OH243336   7.808   3.778   7.340 -0.1807  0.4342  0.0108
 5742TIP3    H143337   7.816   3.684   7.355  3.7678  0.6711  0.3533
 5742TIP3    H243338   7.724   3.801   7.380  0.9464 -2.1189  4.5801
 5743TIP3   OH243339   0.402   7.621   0.650  0.1172 -0.4874 -0.5556
 5743TIP3    H143340   0.392   7.604   0.557 -1.0035  0.6550 -0.6640
 5743TIP3    H243341   0.427   7.713   0.656 -0.7193 -0.2907  0.2985
 5744TIP3   OH243342   2.320   2.787   0.151  0.1556  0.0398  0.3445
 5744TIP3    H143343   2.258   2.853   0.123 -1.4979 -0.2625  2.9659
 5744TIP3    H243344   2.388   2.787   0.083 -0.5685  3.2678 -0.5366
 5745TIP3   OH243345   6.183   2.680   0.116  0.5634 -0.0473 -0.5039
 5745TIP3    H143346   6.258   2.731   0.086 -0.5766  1.6713 -0.5839
 5745TIP3    H243347   6.122   2.746   0.151  0.1487 -1.5968  1.9301
 5746TIP3   OH243348   4.442   3.707   7.345  0.0566 -0.0948 -0.4924
 5746TIP3    H143349   4.526   3.704   7.300  0.1223  2.2564 -0.6263
 5746TIP3    H243350   4.440   3.627   7.397  2.3919 -0.1727 -0.4351
 5747TIP3   OH243351   0.613   3.727   5.929 -0.2182  0.2328 -0.0729
 5747TIP3    H143352   0.680   3.794   5.946  0.0074 -0.0289  0.0778
 5747TIP3    H243353   0.656   3.666   5.868 -0.5848  0.4785 -0.5884
 5748TIP3   OH243354   1.240   6.353   6.218  0.0721 -0.2109 -0.0710
 5748TIP3    H143355   1.244   6.334   6.312 -1.4364 -1.0758 -0.1653
 5748TIP3    H243356   1.148   6.372   6.201  0.7810  3.2831 -0.7737
 5749TIP3   OH243357   5.949   2.929   6.254  0.2774  0.3780  0.7084
 5749TIP3    H143358   5.944   2.909   6.160 -0.0987 -0.1037  0.8237
 5749TIP3    H243359   5.982   3.018   6.258  0.3015  0.4001  0.1133
 5750TIP3   OH243360   6.827   7.912   6.678  0.2414  0.1646  0.0904
 5750TIP3    H143361   6.909   7.962   6.667  0.9024 -0.8087  0.4315
 5750TIP3    H243362   6.804   7.924   6.770 -0.1310  0.6068 -0.0533
 5751TIP3   OH243363   6.763   4.228   6.979 -0.2471  0.7109  0.2286
 5751TIP3    H143364   6.843   4.231   6.926  0.6532  0.8529  1.5470
 5751TIP3    H243365   6.764   4.310   7.029 -1.7981  1.2270 -0.5155
 5752TIP3   OH243366   6.483   7.355   7.522  0.3555  0.1399 -0.0024
 5752TIP3    H143367   6.450   7.418   7.586  0.1373 -0.6480  0.6798
 5752TIP3    H243368   6.467   7.270   7.562 -1.1700 -0.4708 -1.7382
 5753TIP3   OH243369   1.499   1.310   6.596  0.5662  0.1992 -0.0992
 5753TIP3    H143370   1.567   1.255   6.557 -1.2017 -0.6818 -2.1511
 5753TIP3    H243371   1.518   1.310   6.690  2.5706 -1.1392 -0.4568
 5754TIP3   OH243372   7.888   3.850   6.531 -0.4606 -0.1619 -0.1577
 5754TIP3    H143373   7.887   3.944   6.548 -0.0968 -0.3437  0.9201
 5754TIP3    H243374   7.968   3.836   6.480 -0.1984  0.0345  0.1953
 5755TIP3   OH243375   6.919   2.046   1.313 -0.6109 -0.6572 -0.3578
 5755TIP3    H143376   6.824   2.038   1.298 -0.6012 -0.5732 -0.4664
 5755TIP3    H243377   6.947   2.115   1.252 -0.2698 -1.5286 -1.2224
 5756TIP3   OH243378   7.711   7.528   7.226  0.3148  0.0679  0.1156
 5756TIP3    H143379   7.644   7.464   7.203  0.2925  0.0638  0.1879
 5756TIP3    H243380   7.665   7.612   7.227  0.0813 -0.0577  1.1378
 5757TIP3   OH243381   6.412   2.304   6.491  0.7586  0.0018 -0.1375
 5757TIP3    H143382   6.336   2.258   6.526  0.9651  0.8063  1.4308
 5757TIP3    H243383   6.468   2.234   6.457  0.0989 -0.7353  0.2611
 5758TIP3   OH243384   5.836   2.281   0.817  0.2025  0.3181 -0.6105
 5758TIP3    H143385   5.826   2.324   0.732  0.2726  0.4125 -0.5713
 5758TIP3    H243386   5.747   2.262   0.845  0.1746  0.3734 -0.6608
 5759TIP3   OH243387   2.682   7.213   6.497 -0.5575  0.5305  0.1409
 5759TIP3    H143388   2.765   7.258   6.513  0.2225 -1.0646  0.8239
 5759TIP3    H243389   2.678   7.204   6.402  1.0741 -1.1040  0.1742
 5760TIP3   OH243390   3.633   4.259   0.356 -0.5329  0.2538  0.3093
 5760TIP3    H143391   3.578   4.284   0.430  0.2012 -0.6430  1.1951
 5760TIP3    H243392   3.657   4.168   0.374 -0.0625  0.1272 -0.8625
 5761TIP3   OH243393   2.873   7.116   5.755  1.0236 -0.4099 -0.1486
 5761TIP3    H143394   2.839   7.093   5.668 -0.8105  0.4229  0.2946
 5761TIP3    H243395   2.892   7.210   5.749 -1.2222  0.1707  0.9280
 5762TIP3   OH243396   0.049   0.980   6.039 -0.6870 -0.0870  0.1014
 5762TIP3    H143397   0.070   1.031   6.118  1.4896  2.3704 -1.8650
 5762TIP3    H243398   0.009   1.044   5.980  0.4717 -1.0912 -1.8515
 5763TIP3   OH243399   0.083   2.958   5.894 -0.1583  0.1349 -0.3252
 5763TIP3    H143400   0.091   2.865   5.876 -3.5311 -0.2038 -0.7761
 5763TIP3    H243401   0.134   2.972   5.974  1.9410 -1.6496 -1.2548
 5764TIP3   OH243402   7.562   7.960   1.139 -0.2797 -0.3110 -0.0198
 5764TIP3    H143403   7.629   7.986   1.202 -1.4050  0.7951  0.7690
 5764TIP3    H243404   7.492   8.025   1.149 -2.5127 -2.6626  0.8391
 5765TIP3   OH243405   7.329   4.726   1.067 -0.3931 -0.4615 -0.4401
 5765TIP3    H143406   7.340   4.641   1.111 -0.4832 -1.5562 -2.4236
 5765TIP3    H243407   7.362   4.711   0.979 -0.2924  1.6372 -0.7951
 5766TIP3   OH243408   0.086   1.180   0.889 -0.2594  0.2927 -0.4811
 5766TIP3    H143409   0.037   1.097   0.891 -1.1259  0.7801 -0.9007
 5766TIP3    H243410   0.173   1.157   0.920 -0.2355 -0.9601 -1.3866
 5767TIP3   OH243411   7.584   4.871   1.903 -0.4371 -0.0924 -1.0634
 5767TIP3    H143412   7.655   4.812   1.930 -2.5472 -2.6351 -0.6131
 5767TIP3    H243413   7.559   4.916   1.984  1.6937  2.1485 -1.5580
 5768TIP3   OH243414   0.974   6.852   7.017 -0.3132 -0.5064  0.2034
 5768TIP3    H143415   0.911   6.794   6.974  0.9333 -0.0223 -2.4165
 5768TIP3    H243416   0.965   6.936   6.971  2.2307 -0.4327 -0.2652
 5769TIP3   OH243417   1.340   2.127   6.426  0.3343  0.2489  0.4604
 5769TIP3    H143418   1.342   2.099   6.517 -0.5281  0.0922  0.4419
 5769TIP3    H243419   1.275   2.071   6.385  0.4919  0.5264 -0.1842
 5770TIP3   OH243420   0.455   4.746   1.667  0.4993  0.5933 -0.3167
 5770TIP3    H143421   0.434   4.791   1.749 -0.1290 -1.2401  0.5729
 5770TIP3    H243422   0.380   4.689   1.651  2.1725 -1.7432 -0.2359
 5771TIP3   OH243423   6.680   1.720   1.063 -0.6187 -0.3890 -0.2501
 5771TIP3    H143424   6.618   1.780   1.105 -0.9520 -1.0889  0.2770
 5771TIP3    H243425   6.746   1.702   1.130 -1.6655 -2.2575  0.3386
 5772TIP3   OH243426   7.684   5.946   1.461  0.1237 -0.3413 -0.4393
 5772TIP3    H143427   7.637   5.906   1.534 -0.9392 -1.6895 -1.8190
 5772TIP3    H243428   7.774   5.916   1.471  0.1539  0.0823  0.7033
 5773TIP3   OH243429   8.096   3.882   7.542 -0.1256 -0.1821 -0.1908
 5773TIP3    H143430   8.002   3.866   7.554 -0.3705  0.9167 -0.4592
 5773TIP3    H243431   8.131   3.891   7.630 -0.1719 -1.1009 -0.0756
 5774TIP3   OH243432   4.692   3.168   7.624 -0.1067 -0.1502  0.2342
 5774TIP3    H143433   4.701   3.244   7.566 -2.3036 -0.8309 -1.1015
 5774TIP3    H243434   4.703   3.092   7.567 -1.5350 -0.8337  0.8240
 5775TIP3   OH243435   1.451   3.108   6.371  0.0386 -0.0457 -0.1753
 5775TIP3    H143436   1.399   3.034   6.402  4.1020 -3.2735 -0.1907
 5775TIP3    H243437   1.437   3.109   6.276 -0.1184 -0.7759 -0.1660
 5776TIP3   OH243438   1.226   5.631   7.711 -0.0186  0.1517  0.2281
 5776TIP3    H143439   1.302   5.609   7.658  0.5525 -0.3233  1.2227
 5776TIP3    H243440   1.194   5.714   7.674 -1.5050 -1.6083 -2.8506
 5777TIP3   OH243441   6.088   4.209   7.686  0.4086  0.1200  0.5074
 5777TIP3    H143442   6.157   4.155   7.649  0.6859  0.2966  0.7637
 5777TIP3    H243443   6.063   4.166   7.767  1.1559  0.7667  1.1003
 5778TIP3   OH243444   4.404   1.649   0.928 -0.3570 -0.3504 -0.7639
 5778TIP3    H143445   4.430   1.741   0.928  0.2483 -0.5112 -1.6968
 5778TIP3    H243446   4.310   1.650   0.910 -0.5525  0.1254  0.2390
 5779TIP3   OH243447   2.932   6.678   0.736 -0.2495 -0.2518  0.0399
 5779TIP3    H143448   2.998   6.609   0.730 -0.7119 -1.1931  3.6424
 5779TIP3    H243449   2.849   6.633   0.723 -0.4289  0.0879  0.0078
 5780TIP3   OH243450   1.857   1.803   7.889  0.2188  0.0489  0.1310
 5780TIP3    H143451   1.800   1.818   7.813  1.0540  0.5941 -0.4021
 5780TIP3    H243452   1.927   1.747   7.856  0.2362 -0.2500  0.6705
 5781TIP3   OH243453   6.331   2.791   6.283  0.1613 -0.9888  0.1563
 5781TIP3    H143454   6.415   2.836   6.288 -0.5641  0.5276 -0.4175
 5781TIP3    H243455   6.280   2.828   6.355 -0.7329 -0.2125 -0.8295
 5782TIP3   OH243456   4.257   2.335   1.368  0.2369 -0.3805 -0.4530
 5782TIP3    H143457   4.323   2.316   1.301  1.8482 -0.3566  1.0451
 5782TIP3    H243458   4.241   2.251   1.410 -0.5111 -0.3313 -0.6349
 5783TIP3   OH243459   1.854   6.310   0.686 -0.3223  0.6265  0.1720
 5783TIP3    H143460   1.877   6.360   0.607 -0.0706  0.9434  0.4429
 5783TIP3    H243461   1.934   6.261   0.707 -0.7728 -0.4077 -0.4700
 5784TIP3   OH243462   0.556   3.397   7.812  0.2018  0.4104 -0.6484
 5784TIP3    H143463   0.641   3.426   7.845  0.0428 -0.6790  0.8792
 5784TIP3    H243464   0.524   3.337   7.880 -0.8864 -0.7633 -2.1305
 5785TIP3   OH243465   6.251   1.682   0.310  0.7675  0.4432  0.2224
 5785TIP3    H143466   6.303   1.760   0.287 -2.7140  2.2176 -2.7247
 5785TIP3    H243467   6.195   1.711   0.382 -0.2017  0.5934 -0.5663
 5786TIP3   OH243468   5.702   4.061   2.660  0.3266  0.6353  0.2294
 5786TIP3    H143469   5.611   4.089   2.668  0.4540  0.7358  1.7582
 5786TIP3    H243470   5.751   4.125   2.712  1.5372  1.6263 -1.9754
 5787TIP3   OH243471   4.221   5.311   6.640  0.1158  0.5801  0.1514
 5787TIP3    H143472   4.279   5.386   6.651  1.5959 -0.6046  1.0195
 5787TIP3    H243473   4.269   5.252   6.581  0.6738 -1.1499  2.1694
 5788TIP3   OH243474   6.690   7.255   7.387 -0.1190  0.1199 -0.3363
 5788TIP3    H143475   6.617   7.306   7.424 -0.7517 -0.4815 -0.7379
 5788TIP3    H243476   6.666   7.164   7.403  1.1936 -0.0684  0.7222
 5789TIP3   OH243477   1.859   3.467   0.572  0.3165  0.5167  0.4619
 5789TIP3    H143478   1.860   3.439   0.663 -0.6972 -0.1795  0.2774
 5789TIP3    H243479   1.769   3.492   0.555  0.2953 -0.1435 -0.5676
 5790TIP3   OH243480   0.771   4.425   6.321 -0.3447 -0.1742 -0.3219
 5790TIP3    H143481   0.790   4.514   6.291 -0.0627  0.4115  1.4225
 5790TIP3    H243482   0.693   4.435   6.377 -1.5580 -1.3863 -1.7201
 5791TIP3   OH243483   7.374   0.561   5.749  0.0631 -0.1349 -0.1699
 5791TIP3    H143484   7.301   0.603   5.704  0.6248  1.5751  0.4221
 5791TIP3    H243485   7.447   0.567   5.688  0.3690  0.5791  0.2507
 5792TIP3   OH243486   4.843   3.780   6.849  0.2732 -0.1707  0.1627
 5792TIP3    H143487   4.929   3.806   6.881  0.4590  0.2844 -0.6640
 5792TIP3    H243488   4.803   3.861   6.820  0.0164 -0.5293 -0.5071
 5793TIP3   OH243489   0.740   6.100   2.386 -0.1462 -0.4921 -0.3223
 5793TIP3    H143490   0.787   6.150   2.319  2.1611 -0.2579  1.3726
 5793TIP3    H243491   0.659   6.149   2.400  0.6735  1.0751 -0.8759
 5794TIP3   OH243492   3.353   7.206   6.595 -0.7835  0.1329 -0.4181
 5794TIP3    H143493   3.336   7.189   6.687  0.4992  1.1620  0.0382
 5794TIP3    H243494   3.365   7.301   6.589  0.8235 -0.0724 -1.3137
 5795TIP3   OH243495   3.901   1.644   6.621  0.3947  0.6709 -0.3311
 5795TIP3    H143496   3.817   1.690   6.625  0.2356  0.5662 -1.7832
 5795TIP3    H243497   3.934   1.645   6.710  0.2126  3.2313 -0.2335
 5796TIP3   OH243498   4.156   1.453   6.931  0.7624 -0.6701  0.5921
 5796TIP3    H143499   4.134   1.381   6.872  2.1341 -0.7280  0.1109
 5796TIP3    H243500   4.078   1.508   6.932  0.0442 -1.6452  0.2093
 5797TIP3   OH243501   7.464   5.311   6.856  0.3876 -0.8960 -0.0432
 5797TIP3    H143502   7.479   5.342   6.945  0.0174  1.5869 -0.7593
 5797TIP3    H243503   7.436   5.220   6.866  0.2589 -0.6540  2.3510
 5798TIP3   OH243504   0.720   3.632   6.190 -0.1211 -0.2107  0.6627
 5798TIP3    H143505   0.746   3.580   6.114  2.2930  0.7589  0.7185
 5798TIP3    H243506   0.625   3.639   6.184 -0.0130 -0.0435 -2.3652
 5799TIP3   OH243507   2.910   2.304   6.826  0.2416 -0.1195  0.6224
 5799TIP3    H143508   2.856   2.273   6.753  0.7229  2.2862 -0.8598
 5799TIP3    H243509   2.869   2.266   6.903 -1.9854 -0.5379 -0.6589
 5800TIP3   OH243510   3.633   1.739   6.624  0.1866 -0.2047  0.1756
 5800TIP3    H143511   3.544   1.718   6.595  0.1403  1.1355 -0.7620
 5800TIP3    H243512   3.622   1.768   6.715 -0.9482  3.4083 -0.9655
 5801TIP3   OH243513   0.571   7.442   0.203 -0.1209  0.2504  0.2476
 5801TIP3    H143514   0.503   7.401   0.150  0.1598 -0.8720  0.7183
 5801TIP3    H243515   0.615   7.503   0.144 -0.4364 -0.2698 -0.5376
 5802TIP3   OH243516   3.969   8.094   5.831 -0.0063  0.6323 -0.0141
 5802TIP3    H143517   3.908   8.022   5.813 -0.0696  0.1942  1.7544
 5802TIP3    H243518   3.943   8.163   5.770 -1.4297 -0.0163 -0.1985
 5803TIP3   OH243519   2.447   7.544   7.681 -0.1944  0.3580 -0.2228
 5803TIP3    H143520   2.526   7.491   7.696  0.4810  1.6272  0.9178
 5803TIP3    H243521   2.375   7.481   7.684  0.6220 -0.5755  0.6425
 5804TIP3   OH243522   5.685   6.781   7.835 -0.2924  0.4123  0.0618
 5804TIP3    H143523   5.599   6.822   7.826 -1.3031 -0.7355  3.1002
 5804TIP3    H243524   5.675   6.695   7.795 -0.5070  0.3346  0.2839
 5805TIP3   OH243525   5.596   3.475   1.312  0.5401  0.0319 -0.1726
 5805TIP3    H143526   5.529   3.438   1.254  0.2790 -0.7169  0.5810
 5805TIP3    H243527   5.570   3.566   1.324  0.3860  0.0965 -0.9189
 5806TIP3   OH243528   6.479   2.039   1.001  0.4224  0.0453  0.2342
 5806TIP3    H143529   6.452   1.975   0.936  0.0952  0.5789 -0.1574
 5806TIP3    H243530   6.483   1.990   1.083 -3.2020  0.1973  0.6464
 5807TIP3   OH243531   6.893   1.605   1.261 -0.4590 -0.3165 -0.0342
 5807TIP3    H143532   6.924   1.518   1.286  1.0871  0.2257  0.0627
 5807TIP3    H243533   6.842   1.636   1.335 -0.8901 -1.0825 -0.0105
 5808TIP3   OH243534   1.411   6.555   1.251 -0.3927 -0.1408 -0.2366
 5808TIP3    H143535   1.390   6.471   1.291  2.0573 -1.0778 -0.7665
 5808TIP3    H243536   1.341   6.569   1.187 -0.1320 -2.5236 -1.1606
 5809TIP3   OH243537   0.805   1.662   0.585 -0.0228 -0.1057  0.2635
 5809TIP3    H143538   0.833   1.584   0.633  0.2707  0.0139  0.2895
 5809TIP3    H243539   0.875   1.726   0.600 -0.2660  0.1652  0.2492
 5810TIP3   OH243540   3.092   1.330   1.983 -0.3183 -0.1765  0.2008
 5810TIP3    H143541   3.028   1.359   1.918  0.1523  1.7712  0.5130
 5810TIP3    H243542   3.052   1.354   2.067  0.6788  0.8467  0.4081
 5811TIP3   OH243543   2.587   3.734   0.399 -0.1415 -0.1051  0.5092
 5811TIP3    H143544   2.623   3.822   0.411  0.9252 -0.6298  1.3065
 5811TIP3    H243545   2.574   3.700   0.487 -0.4677 -0.7872  0.2108
 5812TIP3   OH243546   5.983   5.542   1.904  0.3632 -0.4536 -0.3776
 5812TIP3    H143547   5.971   5.624   1.952 -0.1104 -0.8451  0.1881
 5812TIP3    H243548   5.985   5.475   1.972  0.7971 -0.9067 -0.8326
 5813TIP3   OH243549   6.246   7.482   6.525 -0.7836  0.1507  0.4042
 5813TIP3    H143550   6.277   7.415   6.464 -0.0787  0.6937  0.1524
 5813TIP3    H243551   6.157   7.454   6.547 -1.3119  0.2527 -1.3789
 5814TIP3   OH243552   0.347   1.577   6.911 -0.0155 -0.3938  0.5249
 5814TIP3    H143553   0.322   1.488   6.935 -3.9158  0.6263  0.8346
 5814TIP3    H243554   0.325   1.630   6.987  1.9548  0.9498  0.2379
 5815TIP3   OH243555   2.298   2.312   7.331 -0.2856 -0.0962 -0.0134
 5815TIP3    H143556   2.233   2.267   7.276 -1.2012  0.3090  0.7026
 5815TIP3    H243557   2.382   2.295   7.288 -0.9975  0.4305 -1.6730
 5816TIP3   OH243558   3.436   2.778   0.430  0.4777 -0.2809  0.3200
 5816TIP3    H143559   3.507   2.809   0.374  1.2300 -0.0870  1.3548
 5816TIP3    H243560   3.393   2.709   0.378 -0.5417  1.6475 -1.5767
 5817TIP3   OH243561   3.960   7.172   0.398  0.4242  0.2955  0.0083
 5817TIP3    H143562   4.044   7.208   0.428 -0.2029  1.5331  0.3775
 5817TIP3    H243563   3.964   7.178   0.303  0.6353  0.6641  0.0358
 5818TIP3   OH243564   0.452   7.478   6.172  0.1795  0.2620  0.4390
 5818TIP3    H143565   0.492   7.498   6.257 -1.3404 -0.2948  1.3364
 5818TIP3    H243566   0.432   7.563   6.134  3.2850  0.6365 -0.6651
 5819TIP3   OH243567   4.973   6.747   6.047 -0.1262  0.2204 -0.1475
 5819TIP3    H143568   4.986   6.775   5.957  1.8119 -0.1366 -0.0237
 5819TIP3    H243569   4.992   6.653   6.047 -2.3684 -0.2962  0.2409
 5820TIP3   OH243570   4.422   1.735   6.885  0.5667  0.2799  0.5796
 5820TIP3    H143571   4.378   1.790   6.819  1.3832 -1.5996 -1.6807
 5820TIP3    H243572   4.352   1.705   6.942 -0.4504  0.6194 -0.4445
 5821TIP3   OH243573   4.350   6.837   1.242  0.4670  0.1354 -0.3417
 5821TIP3    H143574   4.408   6.821   1.316  0.3338  0.5610 -0.1426
 5821TIP3    H243575   4.283   6.769   1.248  0.2389  0.4010  0.1525
 5822TIP3   OH243576   2.607   6.795   1.870  0.1746 -0.2648 -0.3444
 5822TIP3    H143577   2.608   6.890   1.858 -0.4074 -0.1192  0.7274
 5822TIP3    H243578   2.521   6.768   1.839  0.7767 -0.6302 -1.8255
 5823TIP3   OH243579   7.380   5.257   2.312  0.3639 -0.4532 -0.0513
 5823TIP3    H143580   7.343   5.210   2.238  0.7207 -2.7644  1.1482
 5823TIP3    H243581   7.464   5.214   2.328 -0.3705 -1.0714  2.5900
 5824TIP3   OH243582   1.115   3.808   0.871  0.6329 -0.0051  0.1115
 5824TIP3    H143583   1.080   3.865   0.802  0.6207  2.6722  2.1321
 5824TIP3    H243584   1.207   3.798   0.850  0.5595  0.4984 -0.4736
 5825TIP3   OH243585   3.780   7.091   0.097 -0.5343 -0.5255 -0.0625
 5825TIP3    H143586   3.704   7.148   0.088  0.5363  0.7522 -1.5967
 5825TIP3    H243587   3.759   7.014   0.043 -0.7466 -0.1571 -0.5132
 5826TIP3   OH243588   0.527   6.546   1.513  0.4550 -0.5082 -0.0259
 5826TIP3    H143589   0.513   6.567   1.421 -1.6196 -0.9078  0.1411
 5826TIP3    H243590   0.476   6.466   1.528  0.9010 -0.5535  1.4161
 5827TIP3   OH243591   2.540   5.272   0.689 -0.0960  0.3468  0.7537
 5827TIP3    H143592   2.490   5.317   0.620  2.2371  1.8146 -0.1404
 5827TIP3    H243593   2.593   5.342   0.728  1.1046 -1.0638  1.7365
 5828TIP3   OH243594   5.111   0.493   5.311 -0.4747  0.0037 -0.0453
 5828TIP3    H143595   5.158   0.410   5.313 -2.1739 -1.0570 -0.8790
 5828TIP3    H243596   5.179   0.560   5.312  0.9314 -1.2719  3.1138
 5829TIP3   OH243597   6.503   6.079   6.048  0.9454 -0.5760 -0.1898
 5829TIP3    H143598   6.514   6.068   6.142  2.2187  0.1743 -0.2195
 5829TIP3    H243599   6.494   5.990   6.014 -1.6898 -0.7779  0.8262
 5830TIP3   OH243600   6.487   2.052   6.187  0.1960  0.4654 -0.1251
 5830TIP3    H143601   6.517   1.985   6.249  1.7009 -0.3601 -1.6657
 5830TIP3    H243602   6.566   2.102   6.167 -0.8851  2.7464  0.9485
 5831TIP3   OH243603   6.525   5.552   6.011 -0.1036  0.0314  0.5733
 5831TIP3    H143604   6.594   5.497   5.974  0.2502  0.9008 -0.1186
 5831TIP3    H243605   6.533   5.635   5.963 -0.4004  0.8047  1.8008
 5832TIP3   OH243606   4.962   7.559   7.154  0.0951  0.7887  0.3590
 5832TIP3    H143607   4.958   7.634   7.212 -1.9676  0.6210  0.4993
 5832TIP3    H243608   4.870   7.539   7.133  0.5800 -1.5412  0.1495
 5833TIP3   OH243609   7.218   0.920   7.426  0.0679  0.8968 -0.1885
 5833TIP3    H143610   7.181   0.855   7.367  0.1652 -0.4374  1.1556
 5833TIP3    H243611   7.167   0.911   7.507  1.1011  1.4138  0.5449
 5834TIP3   OH243612   0.872   7.565   7.457 -0.5859 -0.2439  1.0126
 5834TIP3    H143613   0.823   7.638   7.419 -1.1429 -0.3596  1.4806
 5834TIP3    H243614   0.958   7.601   7.477  0.1103 -0.4675 -1.3410
 5835TIP3   OH243615   3.869   0.526   1.015  0.1373  0.1014  0.3070
 5835TIP3    H143616   3.855   0.619   1.031 -0.4619 -0.0498  0.7178
 5835TIP3    H243617   3.923   0.497   1.089 -0.4315 -0.0530  0.6747
 5836TIP3   OH243618   6.175   3.324   2.663  0.1584 -0.3748 -0.2086
 5836TIP3    H143619   6.149   3.305   2.573  0.3379 -1.4974 -0.0422
 5836TIP3    H243620   6.213   3.412   2.659 -0.5328 -0.1057 -1.0779
 5837TIP3   OH243621   3.843   6.301   0.884  0.4365  0.3123  0.1812
 5837TIP3    H143622   3.864   6.325   0.794  1.0585 -1.7137 -0.2475
 5837TIP3    H243623   3.920   6.327   0.934  0.0960  1.4304  0.1499
 5838TIP3   OH243624   0.295   4.052   6.821  0.2340 -0.1715  0.1294
 5838TIP3    H143625   0.348   3.976   6.798  0.1898  0.4182 -2.1783
 5838TIP3    H243626   0.358   4.118   6.848  0.6097  0.0957 -1.3274
 5839TIP3   OH243627   3.567   3.516   1.198 -0.4214  0.1560  0.1542
 5839TIP3    H143628   3.559   3.533   1.104 -1.5464  0.9288  0.3654
 5839TIP3    H243629   3.482   3.541   1.234  0.2172  0.5254  1.4783
 5840TIP3   OH243630   5.514   0.970   6.972  0.0390 -0.2569  0.1879
 5840TIP3    H143631   5.545   0.880   6.966  2.8272  0.6382  0.0569
 5840TIP3    H243632   5.571   1.011   7.037 -0.1322  1.8269 -0.8891
 5841TIP3   OH243633   4.067   6.684   6.415 -0.2786 -0.0811 -0.2408
 5841TIP3    H143634   4.025   6.650   6.337  1.2292 -0.1466 -1.0610
 5841TIP3    H243635   4.147   6.726   6.383  0.6918 -0.6537  1.3180
 5842TIP3   OH243636   6.678   6.737   0.044 -0.4195 -0.3653  0.0123
 5842TIP3    H143637   6.739   6.773   0.110  0.3885 -0.5794 -0.5995
 5842TIP3    H243638   6.597   6.785   0.057  0.3049  0.9074 -0.0570
 5843TIP3   OH243639   1.009   5.631   6.398  0.0000  0.1005 -0.1931
 5843TIP3    H143640   1.017   5.707   6.340 -1.4426  1.7973  1.6581
 5843TIP3    H243641   1.081   5.642   6.460  0.2621 -0.5027 -0.3898
 5844TIP3   OH243642   4.370   1.080   1.914  0.5846 -0.1419  0.0133
 5844TIP3    H143643   4.324   1.132   1.848  0.1430 -0.5263  0.0154
 5844TIP3    H243644   4.462   1.086   1.888  0.3474 -0.9201 -1.0908
 5845TIP3   OH243645   5.951   6.489   1.135  0.3782  0.2588  0.1921
 5845TIP3    H143646   5.962   6.514   1.043  2.1397 -0.3858  0.1823
 5845TIP3    H243647   5.857   6.494   1.151 -0.1570 -1.1275 -2.0895
 5846TIP3   OH243648   7.028   2.304   7.676 -0.3059  0.0427 -0.1355
 5846TIP3    H143649   7.123   2.318   7.669 -0.0664  0.0765  2.3008
 5846TIP3    H243650   6.990   2.379   7.631  0.8873  1.2781  0.8102
 5847TIP3   OH243651   7.553   2.133   5.873 -0.3060 -0.0416  0.7539
 5847TIP3    H143652   7.584   2.223   5.877 -1.4615  0.4337 -0.3626
 5847TIP3    H243653   7.462   2.140   5.844  0.1835 -1.6493 -1.4667
 5848TIP3   OH243654   3.184   5.375   7.373 -0.3442 -0.3420 -0.2297
 5848TIP3    H143655   3.137   5.317   7.432 -0.0802 -0.2347  0.0859
 5848TIP3    H243656   3.146   5.358   7.287 -1.4868  0.2901  0.1333
 5849TIP3   OH243657   6.324   6.142   5.697  0.1894  0.2626  0.0184
 5849TIP3    H143658   6.408   6.104   5.670 -0.2560 -0.6533 -0.1161
 5849TIP3    H243659   6.261   6.107   5.634 -0.6428 -0.7582  1.3473
 5850TIP3   OH243660   3.617   3.447   6.855 -0.1579  0.0557 -0.1287
 5850TIP3    H143661   3.710   3.469   6.844 -0.0850 -0.5738 -0.8737
 5850TIP3    H243662   3.603   3.375   6.795 -1.1398  0.1421 -0.0118
 5851TIP3   OH243663   4.455   7.832   6.015 -0.2530 -0.2479  0.2735
 5851TIP3    H143664   4.501   7.897   6.067  1.2117 -0.6773 -0.4267
 5851TIP3    H243665   4.464   7.863   5.925 -2.8562  0.5615  0.2113
 5852TIP3   OH243666   4.380   2.898   6.495 -0.5618 -0.3250 -0.0932
 5852TIP3    H143667   4.417   2.981   6.526 -1.5510 -0.5235  1.8145
 5852TIP3    H243668   4.335   2.920   6.414 -1.4361  1.2042  0.7611
 5853TIP3   OH243669   4.649   4.522   0.557  0.0529 -0.2594 -0.3194
 5853TIP3    H143670   4.740   4.543   0.581  0.1569 -1.8842  0.8755
 5853TIP3    H243671   4.626   4.587   0.491  1.4281  1.4160  0.7664
 5854TIP3   OH243672   5.872   7.833   7.675  0.0826  0.1370  0.4002
 5854TIP3    H143673   5.897   7.744   7.700 -0.9577 -0.0383  0.8687
 5854TIP3    H243674   5.925   7.852   7.598  0.8437 -0.6112  0.7252
 5855TIP3   OH243675   2.994   6.567   7.579  0.0809 -0.8027 -0.1589
 5855TIP3    H143676   2.982   6.485   7.532 -0.3079  0.6731 -2.8630
 5855TIP3    H243677   2.910   6.613   7.569  0.4276  0.1162  0.8980
 5856TIP3   OH243678   0.257   4.371   1.183 -0.1050  1.0727  0.1876
 5856TIP3    H143679   0.286   4.449   1.134 -1.4321  1.4292 -0.0557
 5856TIP3    H243680   0.323   4.361   1.252  1.8880  0.5092 -1.6538
 5857TIP3   OH243681   2.885   0.021   1.919  0.2773  0.3392 -0.5668
 5857TIP3    H143682   2.825  -0.023   1.859  2.0269  0.0617 -2.1914
 5857TIP3    H243683   2.828   0.074   1.975 -1.8005 -2.6014  0.3592
 5858TIP3   OH243684   3.036   3.864   5.872  0.0005  0.3685  0.7774
 5858TIP3    H143685   3.072   3.944   5.909 -1.1120  0.2149  2.2748
 5858TIP3    H243686   3.104   3.798   5.887 -0.4650  0.2859  2.7039
 5859TIP3   OH243687   5.484   5.913   2.465 -0.1883  0.0857 -0.8396
 5859TIP3    H143688   5.484   5.836   2.408  1.0553 -0.1607 -0.5379
 5859TIP3    H243689   5.545   5.974   2.423  0.2727  0.1452 -0.1001
 5860TIP3   OH243690   7.490   1.026   1.898 -0.0688  0.6686  0.5059
 5860TIP3    H143691   7.471   0.964   1.827 -2.4055  2.5415 -0.6391
 5860TIP3    H243692   7.421   1.011   1.962 -0.2809  1.6345  0.5120
 5861TIP3   OH243693   4.120   0.449   7.372  0.2444  0.0428  0.0064
 5861TIP3    H143694   4.070   0.510   7.426 -0.6476  2.2783 -3.0795
 5861TIP3    H243695   4.073   0.447   7.289  2.3651 -2.0269 -1.2657
 5862TIP3   OH243696   6.209   2.660   1.694  0.1049  0.1235  0.4765
 5862TIP3    H143697   6.264   2.629   1.765  1.6839  1.9824  0.1504
 5862TIP3    H243698   6.179   2.580   1.650 -1.2571 -1.1158  3.3557
 5863TIP3   OH243699   3.670   7.174   7.618  0.5851 -0.2342  0.5078
 5863TIP3    H143700   3.714   7.200   7.537 -0.3443  0.2696  0.1535
 5863TIP3    H243701   3.741   7.167   7.682  1.2283  0.1899 -0.1387
 5864TIP3   OH243702   8.023   1.297   6.960 -0.0238 -0.5362 -0.6053
 5864TIP3    H143703   7.995   1.293   7.052  0.1036 -1.0144 -0.5811
 5864TIP3    H243704   8.039   1.389   6.943  2.8954 -0.6828  0.7405
 5865TIP3   OH243705   4.799   4.521   7.460  0.0314 -0.0543  0.3928
 5865TIP3    H143706   4.813   4.487   7.371 -1.0584 -1.1695  0.6295
 5865TIP3    H243707   4.839   4.455   7.517  0.1060  0.3131  0.7678
 5866TIP3   OH243708   7.620   2.550   0.287  0.5786  0.9512 -0.1092
 5866TIP3    H143709   7.665   2.634   0.280 -2.3055  2.5189 -1.3792
 5866TIP3    H243710   7.536   2.564   0.243 -1.0364 -1.8611  1.7996
 5867TIP3   OH243711   3.874   3.499   1.193 -0.1807 -0.2202  0.5464
 5867TIP3    H143712   3.898   3.407   1.199 -0.8503 -0.3614  1.2633
 5867TIP3    H243713   3.780   3.501   1.214 -0.3641  0.5296 -0.2648
 5868TIP3   OH243714   4.227   3.350   0.761 -0.8362  0.3352 -0.9427
 5868TIP3    H143715   4.261   3.330   0.675 -2.3367 -1.1027 -1.2492
 5868TIP3    H243716   4.132   3.359   0.748 -1.0783  0.1917  0.5253
 5869TIP3   OH243717   8.047   3.947   2.430  0.2397 -0.0164 -0.1681
 5869TIP3    H143718   8.042   3.979   2.521  0.2705 -1.1923  0.2587
 5869TIP3    H243719   8.133   3.976   2.399  0.3428  0.1581  0.2701
 5870TIP3   OH243720   0.070   3.194   6.763  0.2395 -0.2139 -0.0709
 5870TIP3    H143721   0.105   3.273   6.721 -3.2048  2.0475  0.8547
 5870TIP3    H243722   0.048   3.223   6.852 -1.2369 -2.2011  0.2571
 5871TIP3   OH243723   1.715   3.684   0.125 -0.3378  0.4616  0.4088
 5871TIP3    H143724   1.792   3.736   0.103  0.0843 -0.8939 -1.5158
 5871TIP3    H243725   1.710   3.618   0.057 -2.4774 -0.2995  1.2235
 5872TIP3   OH243726   6.332   3.100   1.044  0.2545 -0.3515 -0.1863
 5872TIP3    H143727   6.422   3.097   1.011  0.9495  0.0411  1.5532
 5872TIP3    H243728   6.291   3.173   0.997  1.3264  0.4648  0.1251
 5873TIP3   OH243729   1.987   6.041   0.849 -0.2811  0.5107  0.1252
 5873TIP3    H143730   2.081   6.027   0.837 -0.2746 -0.0373  0.8137
 5873TIP3    H243731   1.946   5.963   0.812 -0.3762 -0.0776  1.4405
 5874TIP3   OH243732   6.432   2.957   6.041  0.1806  0.1402  0.2154
 5874TIP3    H143733   6.449   2.979   6.133 -0.6000  0.3987  0.3070
 5874TIP3    H243734   6.412   3.041   6.000  0.1956 -0.0180 -0.1207
 5875TIP3   OH243735   0.198   2.383   1.428  0.3401  0.0198  0.3448
 5875TIP3    H143736   0.251   2.333   1.490  0.8047  0.0603 -0.0189
 5875TIP3    H243737   0.262   2.425   1.371 -0.0950 -0.3468 -0.4205
 5876TIP3   OH243738   3.948   0.637   6.817  0.4956  0.0913  0.1427
 5876TIP3    H143739   4.028   0.600   6.855  0.4728  0.7019  0.7995
 5876TIP3    H243740   3.952   0.731   6.838 -0.3290  0.1530  0.0710
 5877TIP3   OH243741   4.885   1.672   6.197 -0.3393 -0.3957  0.1149
 5877TIP3    H143742   4.873   1.731   6.271 -0.6945  0.6095 -0.7294
 5877TIP3    H243743   4.838   1.713   6.124  0.2280 -1.2195 -0.7488
 5878TIP3   OH243744   0.632   6.795   6.682 -0.0574  0.2835  0.1997
 5878TIP3    H143745   0.653   6.782   6.590 -1.8880 -0.1849 -0.1773
 5878TIP3    H243746   0.650   6.888   6.698  0.9678  0.2035 -0.4221
 5879TIP3   OH243747   4.730   2.583   7.598  0.2208  0.3892 -0.3143
 5879TIP3    H143748   4.740   2.601   7.504 -0.9612 -0.7895 -0.6857
 5879TIP3    H243749   4.794   2.641   7.640  1.1622  0.5315 -1.8772
 5880TIP3   OH243750   5.029   4.302   6.782  0.6657  0.3672 -0.5336
 5880TIP3    H143751   5.042   4.333   6.693 -0.2970  0.1589 -0.7532
 5880TIP3    H243752   5.118   4.288   6.816  1.0396 -0.7941 -1.8893
 5881TIP3   OH243753   1.697   0.183   0.525 -0.3955  0.2456  0.1105
 5881TIP3    H143754   1.669   0.261   0.477 -3.5208  0.6277  2.2130
 5881TIP3    H243755   1.788   0.201   0.549  0.6594  0.8601 -3.7320
 5882TIP3   OH243756   7.565   7.383   7.826 -0.1690 -0.4530 -0.4762
 5882TIP3    H143757   7.470   7.386   7.815 -0.2732  2.2767  0.4163
 5882TIP3    H243758   7.600   7.422   7.746  0.1351 -0.1870 -0.2153
 5883TIP3   OH243759   1.857   1.417   6.589 -0.2266 -0.4858  0.9050
 5883TIP3    H143760   1.946   1.443   6.567 -0.6038 -1.1199 -1.7177
 5883TIP3    H243761   1.835   1.351   6.524 -2.5117 -0.5439  1.6636
 5884TIP3   OH243762   1.362   0.058   5.935 -0.0647 -0.0277 -0.1402
 5884TIP3    H143763   1.356   0.016   6.021  0.9584 -2.0728 -1.0124
 5884TIP3    H243764   1.429   0.008   5.888 -1.2531  0.4129 -2.4607
 5885TIP3   OH243765   2.346   1.953   5.573 -0.1987  1.3322  0.3681
 5885TIP3    H143766   2.315   2.031   5.527  0.0900  1.1214 -0.1925
 5885TIP3    H243767   2.429   1.932   5.530  0.0206  1.0663  0.9136
 5886TIP3   OH243768   2.151   4.427   0.642  0.0553 -0.2249 -0.2870
 5886TIP3    H143769   2.148   4.337   0.609  1.6030 -0.8004  0.9966
 5886TIP3    H243770   2.060   4.456   0.641 -0.4199 -1.6404 -1.1719
 5887TIP3   OH243771   4.398   7.573   7.558 -0.1995 -0.0982  0.2983
 5887TIP3    H143772   4.448   7.611   7.630  0.2962 -0.8294  0.3497
 5887TIP3    H243773   4.357   7.495   7.596 -0.8816  0.1430  0.0885
 5888TIP3   OH243774   0.997   5.811   2.196  0.0791  0.4105  0.3679
 5888TIP3    H143775   0.951   5.757   2.260  2.9452 -2.3947  0.2877
 5888TIP3    H243776   1.089   5.783   2.202  0.5660  0.0701 -4.8147
 5889TIP3   OH243777   6.164   0.763   0.303 -0.5360  0.3594  0.0352
 5889TIP3    H143778   6.234   0.700   0.288 -1.7132 -0.7285 -1.1970
 5889TIP3    H243779   6.180   0.832   0.239  0.2616  0.9030  0.8000
 5890TIP3   OH243780   0.875   6.228   2.176  0.3643 -0.4479 -0.5667
 5890TIP3    H143781   0.854   6.307   2.126 -1.5228 -0.4506  0.1603
 5890TIP3    H243782   0.939   6.182   2.121  0.5230  0.9406 -1.6070
 5891TIP3   OH243783   7.516   0.501   0.078 -0.9029 -0.3949 -0.4159
 5891TIP3    H143784   7.576   0.459   0.140 -0.4815  1.3866  0.4598
 5891TIP3    H243785   7.450   0.543   0.133 -1.5278 -0.2296 -1.2697
 5892TIP3   OH243786   7.042   2.346   7.357 -0.5977 -0.2588 -0.7914
 5892TIP3    H143787   6.970   2.286   7.335 -1.8746 -0.5678  3.3618
 5892TIP3    H243788   7.001   2.414   7.409  1.8058  0.8867 -0.2815
 5893TIP3   OH243789   7.313   4.345   6.530  0.6744 -0.0695  0.0666
 5893TIP3    H143790   7.395   4.393   6.520  0.0111  1.1497  0.2092
 5893TIP3    H243791   7.246   4.414   6.534 -0.3679 -1.0433 -0.2271
 5894TIP3   OH243792   6.901   4.031   0.963  0.1759  0.0922  0.5282
 5894TIP3    H143793   6.972   4.043   0.900  0.9336 -0.2630  1.2848
 5894TIP3    H243794   6.867   3.944   0.944 -1.1073  0.8497 -0.8354
 5895TIP3   OH243795   5.646   1.567   7.911 -0.2866 -0.2391  0.0908
 5895TIP3    H143796   5.707   1.639   7.903  0.4310 -0.9151 -0.7962
 5895TIP3    H243797   5.582   1.596   7.976  0.2722  0.9722  0.1219
 5896TIP3   OH243798   0.232   6.621   7.390  0.2162  0.1778 -0.7416
 5896TIP3    H143799   0.296   6.574   7.444 -0.6513 -1.7161 -1.2707
 5896TIP3    H243800   0.284   6.659   7.319  0.7996 -1.2965 -1.1383
 5897TIP3   OH243801   1.755   7.323   5.279 -0.4781  0.2962  0.0994
 5897TIP3    H143802   1.661   7.329   5.293 -0.5817 -0.2419 -0.3364
 5897TIP3    H243803   1.782   7.245   5.328 -0.5988 -0.7190 -1.3774
 5898TIP3   OH243804   4.528   0.684   1.746 -0.2367 -0.1755 -0.0202
 5898TIP3    H143805   4.611   0.657   1.786 -0.1546 -0.0516 -0.1088
 5898TIP3    H243806   4.489   0.602   1.715  0.3518 -0.1215 -0.9405
 5899TIP3   OH243807   2.298   1.433   0.941  0.1463  0.4171 -0.6318
 5899TIP3    H143808   2.304   1.412   0.848 -0.3021  1.9461 -1.0452
 5899TIP3    H243809   2.362   1.503   0.955  1.1891 -0.6995  0.5433
 5900TIP3   OH243810   6.500   4.516   7.872 -0.1224 -0.0418  0.2272
 5900TIP3    H143811   6.471   4.476   7.953 -0.1870  0.6869  0.5723
 5900TIP3    H243812   6.422   4.514   7.815  0.7831 -3.7195 -1.1537
 5901TIP3   OH243813   5.706   5.538   6.378 -0.1133  0.1344 -0.1298
 5901TIP3    H143814   5.704   5.463   6.437  3.3464 -0.1116 -0.1195
 5901TIP3    H243815   5.705   5.615   6.436  1.9317 -0.0879  0.2953
 5902TIP3   OH243816   4.756   6.312   6.228 -0.5745 -0.5840  0.5255
 5902TIP3    H143817   4.765   6.235   6.285  0.9351 -0.4345  0.5498
 5902TIP3    H243818   4.710   6.377   6.281  0.0153 -0.7548  1.2738
 5903TIP3   OH243819   0.863   1.346   5.567  0.5054  0.2879 -0.0576
 5903TIP3    H143820   0.795   1.351   5.635 -0.7343  0.3077 -1.2682
 5903TIP3    H243821   0.904   1.261   5.581 -0.9758 -0.5204 -0.3864
 5904TIP3   OH243822   6.621   6.597   5.491  0.3513  0.0604  0.1723
 5904TIP3    H143823   6.546   6.538   5.489 -0.6861  1.2068  2.1951
 5904TIP3    H243824   6.584   6.681   5.519  2.4332  0.5807  1.5282
 5905TIP3   OH243825   5.729   7.308   7.088  0.0437  0.6752 -0.0072
 5905TIP3    H143826   5.693   7.380   7.036  0.3730  1.0060  0.2109
 5905TIP3    H243827   5.774   7.352   7.160 -0.4630  0.2206  0.5926
 5906TIP3   OH243828   1.435   1.935   1.352  0.2259  0.0800  0.2199
 5906TIP3    H143829   1.521   1.957   1.317  0.4644 -1.2190 -0.0689
 5906TIP3    H243830   1.454   1.871   1.421 -0.5255 -0.5259 -0.1235
 5907TIP3   OH243831   0.035   3.621   5.988 -0.7800  0.5705 -0.1497
 5907TIP3    H143832   0.038   3.700   6.041 -0.0803 -0.5369  1.5183
 5907TIP3    H243833   0.003   3.651   5.902  1.6633  3.0379 -0.3106
 5908TIP3   OH243834   6.201   7.526   6.111  0.2075  0.1287  0.0479
 5908TIP3    H143835   6.274   7.574   6.150  0.0573 -0.5773  1.2265
 5908TIP3    H243836   6.212   7.539   6.017  0.3750  2.1491  0.3090
 5909TIP3   OH243837   5.853   5.191   0.655  0.3976  0.7973 -0.4771
 5909TIP3    H143838   5.855   5.101   0.624  0.1177  0.3065  0.8744
 5909TIP3    H243839   5.885   5.187   0.745 -2.8699  1.4662  0.8657
 5910TIP3   OH243840   0.987   1.362   1.121  0.5023  0.3003  0.5088
 5910TIP3    H143841   1.020   1.391   1.206  0.2136 -0.2395  0.8126
 5910TIP3    H243842   1.057   1.383   1.059  0.3917  1.4299  0.7448
 5911TIP3   OH243843   3.328   4.328   1.505  0.0720 -0.8079  0.7621
 5911TIP3    H143844   3.233   4.335   1.512 -0.0173  1.5299 -1.3503
 5911TIP3    H243845   3.343   4.266   1.434  0.0062  0.3107 -0.2677
 5912TIP3   OH243846   6.461   2.229   2.546  0.6737 -0.2459 -0.1977
 5912TIP3    H143847   6.507   2.274   2.475  4.4231 -2.4001  0.6492
 5912TIP3    H243848   6.425   2.300   2.600  1.1523  1.5129 -2.0614
 5913TIP3   OH243849   6.703   5.031   0.214  0.2354 -0.0994 -0.3983
 5913TIP3    H143850   6.687   4.938   0.202  3.9794 -0.7339 -2.0163
 5913TIP3    H243851   6.749   5.037   0.298 -2.9693  0.8932  1.4463
 5914TIP3   OH243852   5.303   0.751   5.895 -0.3178  0.8908  0.2016
 5914TIP3    H143853   5.250   0.723   5.970  0.6173 -0.2801  0.4633
 5914TIP3    H243854   5.244   0.745   5.820 -1.5028  2.8455  0.9077
 5915TIP3   OH243855   0.934   3.192   0.247 -0.2103 -0.2589  0.1360
 5915TIP3    H143856   0.899   3.109   0.214  1.0160 -0.9380  0.4834
 5915TIP3    H243857   0.984   3.167   0.325  2.2264  0.4369 -1.1109
 5916TIP3   OH243858   8.011   4.972   7.174 -0.2353 -0.0573  0.0911
 5916TIP3    H143859   8.084   4.927   7.133  0.3416 -0.0916  1.1276
 5916TIP3    H243860   7.935   4.917   7.156 -0.1306  0.2720 -1.4856
 5917TIP3   OH243861   6.620   2.018   1.621 -0.3284 -0.5255  0.5174
 5917TIP3    H143862   6.539   1.994   1.665 -0.3226  0.9038  1.3608
 5917TIP3    H243863   6.647   2.100   1.662  1.5102 -0.9209  0.2066
 5918TIP3   OH243864   3.898   1.964   7.179 -0.1565 -0.0596  0.3738
 5918TIP3    H143865   3.895   1.894   7.115  0.4360 -0.2161  0.5110
 5918TIP3    H243866   3.931   2.040   7.131  0.0833 -0.1198  0.4440
 5919TIP3   OH243867   1.709   7.134   6.729  0.1712  0.2222 -0.1516
 5919TIP3    H143868   1.686   7.227   6.728  2.0637  0.7710 -2.3366
 5919TIP3    H243869   1.647   7.094   6.667 -0.8866 -0.0904  1.0687
 5920TIP3   OH243870   4.098   1.965   5.649 -0.5324 -0.7774  0.1759
 5920TIP3    H143871   4.067   1.911   5.576 -0.0827  0.2069 -0.7713
 5920TIP3    H243872   4.176   2.009   5.615 -0.2716 -0.3512  1.2775
 5921TIP3   OH243873   4.152   6.672   7.252  0.3450  0.3055 -0.7816
 5921TIP3    H143874   4.240   6.635   7.242  1.2081  2.0195 -0.0361
 5921TIP3    H243875   4.144   6.689   7.346 -0.7019  0.3640 -0.8678
 5922TIP3   OH243876   3.423   0.093   7.096 -0.0297  0.1606  0.1359
 5922TIP3    H143877   3.434   0.165   7.158  0.2705  0.3184 -0.0908
 5922TIP3    H243878   3.329   0.077   7.093  0.0442 -0.5768  1.4358
 5923TIP3   OH243879   2.776   2.089   0.953 -0.5461 -0.4080  0.2345
 5923TIP3    H143880   2.723   2.070   1.030 -0.6544 -0.3210  0.1804
 5923TIP3    H243881   2.716   2.079   0.879 -1.3715  2.8711  0.3296
 5924TIP3   OH243882   6.234   7.645   1.628 -0.1389  0.4269  0.0543
 5924TIP3    H143883   6.144   7.618   1.647 -0.2215 -0.8730 -1.8611
 5924TIP3    H243884   6.260   7.698   1.703 -2.1191 -0.0795  1.1613
 5925TIP3   OH243885   3.002   0.950   0.420  0.7254  0.3968  0.3760
 5925TIP3    H143886   3.055   0.878   0.384  3.2759  1.6707  1.3271
 5925TIP3    H243887   2.949   0.980   0.346  0.6713 -1.5086 -0.4164
 5926TIP3   OH243888   2.704   7.502   0.352  0.0369 -0.0072  0.2128
 5926TIP3    H143889   2.707   7.525   0.259  1.1779 -2.0290 -0.3173
 5926TIP3    H243890   2.692   7.407   0.352 -1.3433  0.1238  2.1745
 5927TIP3   OH243891   3.393   4.412   0.004 -0.2242 -0.0700 -0.2508
 5927TIP3    H143892   3.423   4.335   0.054 -0.2892 -1.0552 -1.6730
 5927TIP3    H243893   3.471   4.442  -0.042 -0.4748 -0.0566 -0.6699
 5928TIP3   OH243894   7.013   4.352   7.748 -0.2230  0.1142  0.1306
 5928TIP3    H143895   6.950   4.419   7.774  0.3674  0.6129  0.3023
 5928TIP3    H243896   7.096   4.382   7.785 -0.1107 -1.1528  0.9497
 5929TIP3   OH243897   7.183   2.179   0.728  0.6380  0.6173  0.5984
 5929TIP3    H143898   7.105   2.135   0.692 -0.8042  2.3167  1.4734
 5929TIP3    H243899   7.256   2.144   0.676 -0.6928 -0.9858 -0.3189
 5930TIP3   OH243900   3.543   7.299   6.818  0.0573 -0.7849  0.1543
 5930TIP3    H143901   3.565   7.299   6.725 -0.9142 -1.5291 -0.0928
 5930TIP3    H243902   3.480   7.371   6.828  3.3106  2.1843  1.0929
 5931TIP3   OH243903   2.496   6.461   1.723 -0.2510  0.3155 -0.7215
 5931TIP3    H143904   2.430   6.393   1.737 -0.4718  0.9463  1.8752
 5931TIP3    H243905   2.448   6.544   1.734  0.9177  0.7817  1.4494
 5932TIP3   OH243906   1.379   6.990   7.830  0.2624  0.1115 -0.5820
 5932TIP3    H143907   1.290   6.955   7.842  1.0692 -1.7709  0.3658
 5932TIP3    H243908   1.400   7.031   7.914  0.4322  0.2181 -0.6764
 5933TIP3   OH243909   0.351   4.543   2.113 -0.2017 -0.2408  0.2953
 5933TIP3    H143910   0.289   4.473   2.090 -0.1713 -0.8457  1.9359
 5933TIP3    H243911   0.296   4.609   2.155  0.0006  0.0324  0.1266
 5934TIP3   OH243912   0.572   5.347   1.235 -0.4188 -0.0951 -0.5091
 5934TIP3    H143913   0.587   5.277   1.172  1.8402  0.0745 -0.2400
 5934TIP3    H243914   0.657   5.390   1.244 -1.0555  0.8594  1.4957
 5935TIP3   OH243915   7.601   3.457   6.878 -0.6272  0.2873 -0.3476
 5935TIP3    H143916   7.597   3.426   6.788  0.1371  1.0452 -0.6537
 5935TIP3    H243917   7.542   3.399   6.926 -1.3620  0.1321 -1.4028
 5936TIP3   OH243918   4.259   2.653   0.927  0.2899  0.4515  0.0724
 5936TIP3    H143919   4.306   2.728   0.889  0.4131  1.1757  1.5742
 5936TIP3    H243920   4.223   2.687   1.009  0.8113 -1.3007  1.0625
 5937TIP3   OH243921   6.723   4.662   1.109 -0.6045  0.4995  0.0328
 5937TIP3    H143922   6.629   4.666   1.091 -1.3041 -0.3401  2.8515
 5937TIP3    H243923   6.747   4.751   1.133 -1.4937  0.1922  2.3284
 5938TIP3   OH243924   2.616   4.418   1.651 -0.2242 -0.3014  0.2834
 5938TIP3    H143925   2.682   4.353   1.629 -0.4286 -0.5077  0.2785
 5938TIP3    H243926   2.666   4.494   1.682 -0.0174 -0.9321  1.5568
 5939TIP3   OH243927   2.494   3.933   0.722 -0.1044 -0.5587 -0.3019
 5939TIP3    H143928   2.450   3.916   0.806  1.4952  1.2747  0.9982
 5939TIP3    H243929   2.564   3.869   0.719  0.0295 -0.4235 -0.0841
 5940TIP3   OH243930   1.992   2.700   0.810 -0.4079  0.2212  0.1430
 5940TIP3    H143931   1.908   2.720   0.852 -0.3554  1.5558 -0.3299
 5940TIP3    H243932   2.024   2.622   0.855 -2.0841 -0.5490  0.0673
 5941TIP3   OH243933   2.110   4.162   0.667  0.4097 -0.5365 -0.0714
 5941TIP3    H143934   2.151   4.083   0.703  0.4544  0.4164  2.1115
 5941TIP3    H243935   2.017   4.152   0.687  0.6584  0.8007  2.0373
 5942TIP3   OH243936   7.618   2.822   1.107 -0.4216  0.1422  0.0901
 5942TIP3    H143937   7.653   2.899   1.152  0.0702 -0.9773  1.6856
 5942TIP3    H243938   7.664   2.748   1.145  0.8139 -0.8472 -3.0242
 5943TIP3   OH243939   6.608   6.617   7.760 -0.8234  0.4728 -0.5883
 5943TIP3    H143940   6.653   6.676   7.700  1.4294 -0.3495  0.1938
 5943TIP3    H243941   6.637   6.644   7.847 -0.2052 -1.3658 -0.1776
 5944TIP3   OH243942   2.244   4.088   0.425 -0.8302  0.5802  0.1400
 5944TIP3    H143943   2.265   4.181   0.417  2.0688  0.1383  1.3052
 5944TIP3    H243944   2.196   4.081   0.507 -1.2789  1.0402 -0.0749
 5945TIP3   OH243945   1.409   7.683   5.755 -0.0960 -0.1342  0.3684
 5945TIP3    H143946   1.492   7.729   5.761 -1.0531  1.6616  0.3110
 5945TIP3    H243947   1.365   7.701   5.839 -0.6449 -0.6397  0.1972
 5946TIP3   OH243948   7.990   2.965   1.640  0.2006 -0.2930 -0.1984
 5946TIP3    H143949   7.988   3.022   1.717  0.1768 -0.2512 -0.2299
 5946TIP3    H243950   8.074   2.983   1.599  0.2937 -0.4545 -0.0773
 5947TIP3   OH243951   6.452   7.351   0.218  0.4282  0.7145 -0.0589
 5947TIP3    H143952   6.546   7.366   0.231  0.3946  2.2145 -1.2464
 5947TIP3    H243953   6.446   7.323   0.126 -0.0922 -1.6793  0.6366
 5948TIP3   OH243954   4.130   0.806   7.238 -0.1184  0.0212  0.3450
 5948TIP3    H143955   4.141   0.869   7.166 -1.1874  0.4436  0.5296
 5948TIP3    H243956   4.173   0.848   7.313  1.4192 -0.6303 -0.1264
 5949TIP3   OH243957   5.241   5.129   7.333  0.1856  0.4846  0.2320
 5949TIP3    H143958   5.224   5.039   7.362  0.6133  0.2862 -0.1188
 5949TIP3    H243959   5.166   5.151   7.278 -0.7445  0.9417  1.6281
 5950TIP3   OH243960   3.585   7.197   6.264 -0.4438  0.1611 -0.1085
 5950TIP3    H143961   3.655   7.249   6.226  1.1117 -1.2117  0.7070
 5950TIP3    H243962   3.508   7.216   6.210  1.1651 -0.2625 -2.7389
 5951TIP3   OH243963   7.404   2.032   0.018 -0.0176 -0.1233  0.0220
 5951TIP3    H143964   7.433   2.037   0.109  3.5349  0.9958 -1.0181
 5951TIP3    H243965   7.371   2.120  -0.001 -1.2758 -0.5085  0.3154
 5952TIP3   OH243966   0.385   2.759   2.288 -0.0867 -0.0655 -0.6901
 5952TIP3    H143967   0.313   2.697   2.295 -0.5252  0.2162 -2.3142
 5952TIP3    H243968   0.342   2.845   2.285  0.5175  0.3985  1.6897
 5953TIP3   OH243969   1.317   2.613   6.434 -0.2829 -0.6329 -0.3910
 5953TIP3    H143970   1.360   2.533   6.405  1.7594 -0.2733  1.3809
 5953TIP3    H243971   1.274   2.589   6.515 -0.1311 -0.0791 -0.1405
 5954TIP3   OH243972   5.958   5.073   7.402 -0.1244  0.2542  0.2540
 5954TIP3    H143973   5.898   5.000   7.417 -0.8287  0.4682 -1.3325
 5954TIP3    H243974   6.042   5.031   7.384 -0.4579 -0.1825 -0.3522
 5955TIP3   OH243975   7.505   5.057   6.571  0.0912  0.3944  0.4952
 5955TIP3    H143976   7.496   5.149   6.544 -0.9661  0.4604  1.0122
 5955TIP3    H243977   7.440   5.047   6.641  0.4600 -0.6509  0.6918
 5956TIP3   OH243978   2.030   4.044   1.655 -0.5448 -0.2478  0.7338
 5956TIP3    H143979   2.065   4.080   1.574 -1.5598  1.8576  1.1818
 5956TIP3    H243980   1.949   4.000   1.629 -0.7416  0.2139  0.5540
 5957TIP3   OH243981   5.535   4.519   1.386 -0.0396 -0.0917  0.5492
 5957TIP3    H143982   5.496   4.463   1.453 -2.7986 -0.4561 -1.2092
 5957TIP3    H243983   5.483   4.503   1.308  2.3658  1.1124 -1.4460
 5958TIP3   OH243984   0.888   5.649   2.390 -0.2050  0.2704  0.0239
 5958TIP3    H143985   0.798   5.653   2.422 -0.2241 -1.6599  0.3586
 5958TIP3    H243986   0.941   5.677   2.465 -0.4501 -0.3293  0.4286
 5959TIP3   OH243987   6.839   0.121   0.628  0.3202  0.0736 -0.0700
 5959TIP3    H143988   6.868   0.034   0.655 -0.5518 -0.1291  0.2313
 5959TIP3    H243989   6.754   0.107   0.587  0.3829  0.7301 -0.4528
 5960TIP3   OH243990   3.239   5.345   5.559  0.0220  0.2113  0.0595
 5960TIP3    H143991   3.172   5.301   5.507  1.7001 -0.1327 -1.9305
 5960TIP3    H243992   3.262   5.282   5.627 -1.5744  0.3062  0.7243
 5961TIP3   OH243993   8.009   3.350   7.930 -0.1811 -0.1705  0.1483
 5961TIP3    H143994   7.987   3.424   7.987  1.6774  0.4665  0.0890
 5961TIP3    H243995   7.971   3.274   7.974 -0.9504  0.6372  0.9212
 5962TIP3   OH243996   3.212   6.218   7.429 -0.0273  0.1551 -0.2885
 5962TIP3    H143997   3.151   6.279   7.388  0.0653 -0.0999 -0.8186
 5962TIP3    H243998   3.178   6.131   7.406  1.9126 -0.0660 -2.8184
 5963TIP3   OH243999   5.046   4.765   2.561  0.5408 -0.3154  0.3862
 5963TIP3    H144000   5.072   4.775   2.652  0.3111 -1.5281  0.6091
 5963TIP3    H244001   5.050   4.670   2.546 -0.3188 -0.2103 -0.5905
 5964TIP3   OH244002   4.022   5.966   0.989  0.5623 -0.2078 -0.1657
 5964TIP3    H144003   4.020   6.012   1.074  0.5110 -0.7442  0.1267
 5964TIP3    H244004   4.099   6.002   0.944 -1.0533  2.2743 -1.1465
 5965TIP3   OH244005   2.490   2.688   0.718  0.3201 -0.1408  0.5214
 5965TIP3    H144006   2.567   2.634   0.736 -0.2829 -1.1167  0.2360
 5965TIP3    H244007   2.500   2.764   0.776  0.7127 -1.0157  1.6325
 5966TIP3   OH244008   6.541   7.432   6.746  0.6115  0.4177 -0.2921
 5966TIP3    H144009   6.606   7.501   6.733  0.6004  0.2637 -1.2213
 5966TIP3    H244010   6.506   7.416   6.659 -0.1237 -0.0440  0.0835
 5967TIP3   OH244011   6.972   3.212   6.017  0.3560 -0.1980  0.0603
 5967TIP3    H144012   6.987   3.260   5.935  1.1530 -1.3616 -0.5074
 5967TIP3    H244013   7.059   3.190   6.048  0.0658  0.3189  1.3110
 5968TIP3   OH244014   5.098   5.248   1.860  0.5148  0.9946  0.0816
 5968TIP3    H144015   5.122   5.323   1.914  0.0953 -0.8180  3.0280
 5968TIP3    H244016   5.021   5.211   1.904 -1.1050  0.4730 -2.9385
 5969TIP3   OH244017   2.618   1.500   6.485  0.2167  0.1291  0.1456
 5969TIP3    H144018   2.703   1.536   6.511  1.3077 -0.6467 -2.1085
 5969TIP3    H244019   2.623   1.407   6.508  0.0255  0.0570 -0.1091
 5970TIP3   OH244020   6.798   1.570   6.551 -0.0741  0.4567 -0.3865
 5970TIP3    H144021   6.829   1.660   6.548  1.8901 -0.1758 -0.0472
 5970TIP3    H244022   6.719   1.574   6.606 -0.4887  2.0569 -1.0352
 5971TIP3   OH244023   3.594   6.508   5.833  0.5980  0.4181 -0.6044
 5971TIP3    H144024   3.584   6.416   5.859 -0.2715  0.7585  0.2881
 5971TIP3    H244025   3.639   6.550   5.906 -0.5269  1.0596 -0.2597
 5972TIP3   OH244026   4.287   5.460   0.772  0.2749  0.4361 -0.0811
 5972TIP3    H144027   4.378   5.462   0.801 -0.0846 -1.0702  1.3118
 5972TIP3    H244028   4.260   5.552   0.772  1.1764  0.7417  1.6398
 5973TIP3   OH244029   5.077   5.432   6.831  0.4291 -0.3331  0.5090
 5973TIP3    H144030   5.076   5.485   6.751  1.3552  1.3016  1.5245
 5973TIP3    H244031   5.158   5.381   6.824 -0.6547 -2.0181 -0.6539
 5974TIP3   OH244032   0.936   2.692   0.698  0.0569  0.2464  0.1837
 5974TIP3    H144033   0.854   2.651   0.723 -0.3731  0.7991 -0.3009
 5974TIP3    H244034   0.974   2.633   0.634 -0.6988  0.7274 -0.7289
 5975TIP3   OH244035   7.136   5.143   6.903  0.6204 -0.2867 -0.1226
 5975TIP3    H144036   7.142   5.237   6.887  3.0452 -0.2599  0.5502
 5975TIP3    H244037   7.096   5.135   6.989 -1.6704 -0.0274 -1.0781
 5976TIP3   OH244038   3.732   4.863   1.218  0.0398 -0.0251  0.0085
 5976TIP3    H144039   3.817   4.820   1.204  0.0994 -0.2046  0.8676
 5976TIP3    H244040   3.750   4.932   1.281 -0.6005 -0.5894  0.8321
 5977TIP3   OH244041   1.457   7.700   0.283 -0.1326  0.9867 -0.0348
 5977TIP3    H144042   1.526   7.715   0.219  0.3493 -2.0551 -0.4083
 5977TIP3    H244043   1.503   7.666   0.360 -1.1133 -1.2678 -0.3560
 5978TIP3   OH244044   7.141   7.320   0.630 -0.3158 -0.5634 -0.1724
 5978TIP3    H144045   7.153   7.226   0.630  2.1352 -0.3020 -0.9879
 5978TIP3    H244046   7.227   7.357   0.648 -1.2340  1.5435  0.3360
 5979TIP3   OH244047   5.210   7.895   7.695 -0.4249 -0.3394 -0.4111
 5979TIP3    H144048   5.146   7.896   7.766 -0.0861 -1.6366 -0.0741
 5979TIP3    H244049   5.246   7.984   7.695 -1.2453  0.0081  0.2778
 5980TIP3   OH244050   5.973   7.243   7.317  0.1518 -0.7818 -0.2031
 5980TIP3    H144051   6.018   7.323   7.342 -0.9541  0.6378 -2.4717
 5980TIP3    H244052   6.028   7.204   7.249 -1.0709  0.0606 -1.7473
 5981TIP3   OH244053   5.050   2.316   1.515  0.4164 -0.2132  0.3209
 5981TIP3    H144054   5.027   2.283   1.602  2.1407  1.8740  1.6871
 5981TIP3    H244055   5.126   2.263   1.489  1.5558  0.8579  1.3382
 5982TIP3   OH244056   3.448   5.564   6.120  0.1715 -0.2173 -0.3988
 5982TIP3    H144057   3.421   5.655   6.132  0.0349 -0.2034 -0.7834
 5982TIP3    H244058   3.516   5.568   6.053 -0.4605 -0.4835 -1.0752
 5983TIP3   OH244059   5.433   2.661   7.058  0.2425  0.7695  0.4704
 5983TIP3    H144060   5.421   2.755   7.046  1.4427  1.2346  2.4707
 5983TIP3    H244061   5.411   2.646   7.150  1.6197 -0.6150  0.6068
 5984TIP3   OH244062   0.281   1.521   0.052  0.1205  0.6023 -0.0038
 5984TIP3    H144063   0.191   1.553   0.064 -0.5223 -1.1296 -0.0066
 5984TIP3    H244064   0.301   1.473   0.132  0.2464 -0.8083 -0.8455
 5985TIP3   OH244065   4.860   6.301   0.595 -0.0374 -0.7184  0.1548
 5985TIP3    H144066   4.924   6.234   0.619 -0.9132 -1.0769  1.5912
 5985TIP3    H244067   4.831   6.276   0.507  3.4962  0.8186 -1.6449
 5986TIP3   OH244068   0.232   4.129   1.474  0.1239  0.2955  0.2757
 5986TIP3    H144069   0.137   4.117   1.472  0.1018  0.5346 -0.9124
 5986TIP3    H244070   0.263   4.089   1.393  0.9184  1.0986  0.1655
 5987TIP3   OH244071   7.664   5.615   6.046  0.0082  0.1375  0.3905
 5987TIP3    H144072   7.680   5.655   6.132  2.8903 -0.5050  0.2739
 5987TIP3    H244073   7.748   5.575   6.022 -1.0194 -0.7032 -2.2350
 5988TIP3   OH244074   4.511   6.434   7.505  0.0325  0.4958  0.2085
 5988TIP3    H144075   4.597   6.475   7.506 -0.0570  0.6953 -0.1498
 5988TIP3    H244076   4.473   6.456   7.591 -0.0018  1.1464  0.0376
 5989TIP3   OH244077   3.725   1.445   1.079 -0.2837 -0.6680  0.3440
 5989TIP3    H144078   3.795   1.458   1.014 -1.1461  0.4294 -0.4055
 5989TIP3    H244079   3.687   1.532   1.090 -0.2484 -0.8485  2.2573
 5990TIP3   OH244080   0.744   4.000   2.067  0.0819  0.1007  0.2633
 5990TIP3    H144081   0.674   4.031   2.010  0.9235 -1.5862 -1.7839
 5990TIP3    H244082   0.707   3.924   2.111  0.6515 -0.9665 -1.0352
 5991TIP3   OH244083   5.326   0.082   1.553 -0.0546  0.2285 -0.5140
 5991TIP3    H144084   5.257   0.094   1.618 -0.5183  1.0977 -1.1466
 5991TIP3    H244085   5.380   0.011   1.588 -0.7698  0.1217  0.4075
 5992TIP3   OH244086   4.226   4.828   7.147 -0.4618 -0.1000  0.0181
 5992TIP3    H144087   4.210   4.920   7.125 -0.3634 -0.3241 -1.0937
 5992TIP3    H244088   4.141   4.794   7.173 -0.3038  0.5489  1.4719
 5993TIP3   OH244089   4.577   2.369   6.745 -0.8203  0.0602 -0.1706
 5993TIP3    H144090   4.573   2.274   6.734 -2.1743 -0.0647  1.1421
 5993TIP3    H244091   4.491   2.393   6.779  0.4802  1.3256  2.5669
 5994TIP3   OH244092   5.604   0.309   0.284 -0.5755 -0.5541 -0.5117
 5994TIP3    H144093   5.665   0.288   0.213 -0.3055 -2.0880  0.1405
 5994TIP3    H244094   5.658   0.349   0.351  0.1649 -3.6062  0.8512
 5995TIP3   OH244095   0.567   2.178   1.769  0.1999 -0.6728  0.6278
 5995TIP3    H144096   0.573   2.096   1.719  0.3853  0.0622 -0.6111
 5995TIP3    H244097   0.475   2.184   1.794  0.0510 -0.9357  0.1545
 5996TIP3   OH244098   4.707   6.675   7.333 -0.4500 -0.2604 -0.2434
 5996TIP3    H144099   4.750   6.761   7.333 -1.0773  0.1314 -2.9726
 5996TIP3    H244100   4.746   6.629   7.408  1.4805  1.6105 -0.0030
 5997TIP3   OH244101   2.969   2.000   5.747 -0.8419 -0.2697 -0.7225
 5997TIP3    H144102   3.020   1.944   5.688 -2.4054 -0.7035 -1.7318
 5997TIP3    H244103   2.897   1.944   5.776  0.0811 -0.1924  1.9767
 5998TIP3   OH244104   2.329   2.348   1.536  0.0197  0.3492  0.1187
 5998TIP3    H144105   2.246   2.333   1.581 -0.0616 -1.9960 -0.6559
 5998TIP3    H244106   2.396   2.337   1.604 -0.2407  0.4469  0.3899
 5999TIP3   OH244107   4.582   5.841   1.152 -0.8356  0.3549 -0.4634
 5999TIP3    H144108   4.565   5.781   1.079 -0.3157 -0.6941  0.2427
 5999TIP3    H244109   4.653   5.897   1.121  0.0353 -0.6989 -0.4542
 6000TIP3   OH244110   5.276   2.545   0.024 -0.1657  0.1387 -0.1255
 6000TIP3    H144111   5.313   2.622  -0.020 -1.2192  0.8908  0.2690
 6000TIP3    H244112   5.201   2.579   0.073 -1.7526 -1.4387 -1.3551
 6001TIP3   OH244113   5.841   0.715   2.442  0.5639 -0.2348  0.4805
 6001TIP3    H144114   5.767   0.753   2.395 -0.0093 -0.8675  0.8374
 6001TIP3    H244115   5.871   0.643   2.386  1.1667  0.2667  0.1526
 6002TIP3   OH244116   6.426   3.677   6.969 -0.4246 -0.4494 -0.3787
 6002TIP3    H144117   6.500   3.643   6.920  0.2116 -1.5834  1.2592
 6002TIP3    H244118   6.406   3.608   7.033 -2.3233  0.2052 -0.1890
 6003TIP3   OH244119   4.499   7.266   0.381  0.3381 -0.8438  0.1684
 6003TIP3    H144120   4.467   7.176   0.383 -0.1057 -0.6837  0.5474
 6003TIP3    H244121   4.572   7.266   0.444  1.4403 -1.3278 -1.0665
 6004TIP3   OH244122   7.086   1.815   2.370 -0.3033  0.1353 -0.0050
 6004TIP3    H144123   7.138   1.822   2.290  0.4625  0.9124  0.5305
 6004TIP3    H244124   7.140   1.859   2.436 -0.3280 -1.5880  1.2203
 6005TIP3   OH244125   1.209   5.693   7.402  0.1279  0.0267 -0.3054
 6005TIP3    H144126   1.280   5.744   7.440 -1.3635  1.6821  0.4227
 6005TIP3    H244127   1.251   5.633   7.341  2.4378 -1.1606  2.2459
 6006TIP3   OH244128   0.341   2.712   0.646  0.3086 -0.0908 -0.3585
 6006TIP3    H144129   0.305   2.662   0.720  0.8607 -0.7237 -0.5118
 6006TIP3    H244130   0.287   2.791   0.643 -1.3180 -1.1694 -0.8133
 6007TIP3   OH244131   2.738   1.258   0.686 -0.5843 -0.0609  0.7466
 6007TIP3    H144132   2.770   1.170   0.702 -1.4922 -0.4597  0.4319
 6007TIP3    H244133   2.722   1.262   0.592 -1.0659  0.2563  0.8353
 6008TIP3   OH244134   6.563   1.419   0.398  0.6591  0.4776 -0.2466
 6008TIP3    H144135   6.594   1.335   0.364 -0.3330 -0.6707  1.5905
 6008TIP3    H244136   6.591   1.483   0.331 -0.3513 -1.5059 -2.7347
 6009TIP3   OH244137   0.909   5.730   6.683  0.3198  0.2270 -0.2636
 6009TIP3    H144138   1.003   5.712   6.683  0.3263 -0.0588  1.9949
 6009TIP3    H244139   0.903   5.825   6.691  0.4346  0.1763  0.4655
 6010TIP3   OH244140   2.548   5.909   7.430 -0.2731  0.1060 -0.2565
 6010TIP3    H144141   2.558   6.003   7.418 -0.9558  0.1539 -0.5396
 6010TIP3    H244142   2.613   5.886   7.496 -0.3652  0.8470  0.1068
 6011TIP3   OH244143   0.003   1.795   0.726 -0.2725 -0.2185 -0.0989
 6011TIP3    H144144  -0.005   1.772   0.634 -1.3629  1.5410 -0.4820
 6011TIP3    H244145   0.097   1.789   0.745 -0.1012 -1.0820 -1.1712
 6012TIP3   OH244146   6.199   4.952   7.418 -0.4047 -0.3159  0.7278
 6012TIP3    H144147   6.261   5.024   7.406 -1.6747  0.6802 -0.1525
 6012TIP3    H244148   6.247   4.874   7.390  0.6919  0.3165  0.7861
 6013TIP3   OH244149   4.707   3.577   1.287  0.4749  0.3481  0.6588
 6013TIP3    H144150   4.627   3.526   1.298  0.2435  0.5024 -0.2211
 6013TIP3    H244151   4.723   3.576   1.193  0.2563  2.2273  0.5707
 6014TIP3   OH244152   6.538   7.641   7.643 -0.6243 -0.2347  0.4604
 6014TIP3    H144153   6.541   7.627   7.548 -1.5911  0.1959  0.3575
 6014TIP3    H244154   6.498   7.728   7.653 -1.0261 -0.5086  1.2824
 6015TIP3   OH244155   2.044   7.205   7.196 -0.2402 -0.1652 -0.2510
 6015TIP3    H144156   2.047   7.128   7.251  1.5961 -0.0849 -0.1782
 6015TIP3    H244157   2.066   7.174   7.108  0.3864  0.2471 -0.2463
 6016TIP3   OH244158   0.990   7.082   7.488  0.0141  0.2210 -0.0256
 6016TIP3    H144159   0.953   7.074   7.400  1.6441  1.3878 -0.8762
 6016TIP3    H244160   1.026   7.170   7.491  2.4129 -0.6963  0.8002
 6017TIP3   OH244161   0.596   5.699   0.285  0.5260 -0.1038 -0.2377
 6017TIP3    H144162   0.643   5.746   0.216  2.0166 -1.4198 -0.1769
 6017TIP3    H244163   0.646   5.618   0.297  0.3075  0.0709  2.3740
 6018TIP3   OH244164   5.979   0.528   7.125  0.0950  0.3630 -0.4061
 6018TIP3    H144165   6.025   0.444   7.135  0.5244  0.3733 -1.9995
 6018TIP3    H244166   5.964   0.558   7.215 -1.5999 -2.2293  0.3086
 6019TIP3   OH244167   7.466   4.611   7.172 -0.0081  0.4162 -0.2991
 6019TIP3    H144168   7.384   4.660   7.185 -0.8597 -0.7673 -0.9984
 6019TIP3    H244169   7.495   4.635   7.085 -1.4445 -1.6306 -1.4519
 6020TIP3   OH244170   3.968   6.371   0.635 -0.0738 -0.0586  0.0693
 6020TIP3    H144171   3.924   6.351   0.552  0.0101  0.5839 -0.1298
 6020TIP3    H244172   4.053   6.327   0.627 -0.7757 -1.5855  0.5901
 6021TIP3   OH244173   5.197   3.818   2.045  0.1112 -0.4295 -0.4007
 6021TIP3    H144174   5.257   3.828   1.970 -1.7187 -0.8770 -2.0161
 6021TIP3    H244175   5.215   3.730   2.078  0.5497 -0.4514 -0.6831
 6022TIP3   OH244176   3.766   0.759   1.075  0.5582 -0.2016  0.3409
 6022TIP3    H144177   3.847   0.810   1.085 -0.3638  1.3573  0.2796
 6022TIP3    H244178   3.717   0.777   1.156  0.3191 -1.2205  0.4268
 6023TIP3   OH244179   1.207   7.936   7.393 -0.5636  0.2002 -0.0971
 6023TIP3    H144180   1.174   8.024   7.373 -0.3235  0.3895  0.3142
 6023TIP3    H244181   1.265   7.915   7.321  1.4019  1.4518  1.0264
 6024TIP3   OH244182   3.142   4.556   7.898  0.1548 -0.0743  0.6932
 6024TIP3    H144183   3.199   4.481   7.880  0.8558  0.7814 -0.8745
 6024TIP3    H244184   3.196   4.615   7.949  0.2180  0.1299  0.3940
 6025TIP3   OH244185   1.527   3.090   7.225 -0.5758  0.0310  0.0366
 6025TIP3    H144186   1.457   3.098   7.289  1.5676  0.8382  2.4131
 6025TIP3    H244187   1.538   3.178   7.190  0.0161  0.1427  0.5084
 6026TIP3   OH244188   2.158   5.584   1.535 -0.5426  0.1156 -0.4749
 6026TIP3    H144189   2.074   5.624   1.561 -1.1136  0.0360 -2.1250
 6026TIP3    H244190   2.176   5.620   1.448  0.9351 -0.2145 -0.3266
 6027TIP3   OH244191   0.479   1.989   0.849 -0.2491 -0.1316 -0.1650
 6027TIP3    H144192   0.470   2.040   0.930 -0.1456 -0.3331 -0.0266
 6027TIP3    H244193   0.545   2.036   0.798  2.2717 -1.8267  1.3055
 6028TIP3   OH244194   6.246   4.519   0.483  0.0431 -0.1627 -0.0787
 6028TIP3    H144195   6.256   4.429   0.453 -1.3970 -0.3013 -0.2125
 6028TIP3    H244196   6.242   4.571   0.403 -0.1061 -0.1081 -0.0379
 6029TIP3   OH244197   7.568   6.845   6.517 -0.7234  0.1824  0.4977
 6029TIP3    H144198   7.629   6.795   6.463 -1.3408  0.4330 -0.4716
 6029TIP3    H244199   7.503   6.878   6.454 -1.0881  1.0506  1.3093
 6030TIP3   OH244200   7.185   5.980   0.740  0.1464 -0.4176 -0.3957
 6030TIP3    H144201   7.239   5.912   0.698 -0.0812  0.2605 -1.8791
 6030TIP3    H244202   7.096   5.947   0.732  0.2841 -1.6157  2.2085
 6031TIP3   OH244203   3.550   1.087   7.404 -0.2175  0.4694  0.4985
 6031TIP3    H144204   3.617   1.137   7.358 -0.4201  0.3774  0.0921
 6031TIP3    H244205   3.468   1.132   7.383 -0.3655  0.1503  0.3763
 6032TIP3   OH244206   2.463   1.751   0.110  0.0455 -0.1536 -0.3334
 6032TIP3    H144207   2.516   1.697   0.051 -0.3645  0.7816 -1.6278
 6032TIP3    H244208   2.448   1.831   0.060 -2.0482 -0.1340  0.2444
 6033TIP3   OH244209   4.254   2.872   1.658 -0.5778  0.0512  0.5906
 6033TIP3    H144210   4.269   2.953   1.706 -1.8728  0.0925  0.9502
 6033TIP3    H244211   4.189   2.895   1.591  0.6160 -0.1900 -0.7019
 6034TIP3   OH244212   1.689   7.340   1.232 -0.8052  0.4883  0.1310
 6034TIP3    H144213   1.653   7.367   1.316  0.0134  2.2944 -0.0663
 6034TIP3    H244214   1.614   7.344   1.171 -1.7692 -2.2743  0.9765
 6035TIP3   OH244215   0.456   8.013   7.524 -0.3123 -0.7776  0.3302
 6035TIP3    H144216   0.516   7.947   7.559 -0.8580 -1.4069  0.1156
 6035TIP3    H244217   0.375   8.001   7.573  0.1009  0.9292  1.5177
 6036TIP3   OH244218   2.499   4.137   7.879  0.6096 -0.0536 -0.4052
 6036TIP3    H144219   2.416   4.120   7.835  0.6924 -0.2051 -0.5040
 6036TIP3    H244220   2.566   4.109   7.817  0.7940  1.6307 -1.0206
 6037TIP3   OH244221   1.752   1.546   1.753  0.1388  0.0666 -0.1028
 6037TIP3    H144222   1.661   1.528   1.731 -0.6001  1.2519  1.7619
 6037TIP3    H244223   1.795   1.561   1.668 -1.1510 -1.3815 -1.0763
 6038TIP3   OH244224   3.025   2.123   7.730 -0.5013  0.1067 -0.1949
 6038TIP3    H144225   3.026   2.192   7.664  0.5010  0.7222  0.4497
 6038TIP3    H244226   2.960   2.060   7.698  0.3182  0.1373 -2.0328
 6039TIP3   OH244227   6.628   2.270   0.545  0.3198  0.2323  0.4549
 6039TIP3    H144228   6.640   2.303   0.455  0.3133  1.0458  0.7469
 6039TIP3    H244229   6.608   2.177   0.533  1.6276  0.0229 -0.3219
 6040TIP3   OH244230   3.314   3.779   2.454 -1.0292  0.1514 -0.7698
 6040TIP3    H144231   3.400   3.768   2.414 -1.3114 -2.7414 -0.7901
 6040TIP3    H244232   3.306   3.873   2.468  2.8181  0.4282  0.7821
 6041TIP3   OH244233   0.807   6.683   6.874  0.8721 -0.4017 -0.3392
 6041TIP3    H144234   0.761   6.694   6.791  1.1851 -0.3574 -0.5110
 6041TIP3    H244235   0.738   6.672   6.939  0.6203 -0.2628 -0.5810
 6042TIP3   OH244236   6.553   0.179   0.197 -0.4163 -0.5657  0.0998
 6042TIP3    H144237   6.537   0.266   0.161 -2.1946 -0.2865  1.4596
 6042TIP3    H244238   6.627   0.145   0.146 -0.0592  1.4965 -0.8308
 6043TIP3   OH244239   3.750   5.716   7.230  0.1755  0.1024 -0.1849
 6043TIP3    H144240   3.797   5.712   7.147 -0.5615 -2.3204 -0.5831
 6043TIP3    H244241   3.776   5.636   7.276 -3.2506 -1.2847 -0.3383
 6044TIP3   OH244242   0.975   3.011   6.393 -0.2038  0.4763  0.0681
 6044TIP3    H144243   0.921   3.039   6.319 -2.7630 -3.5356  0.1173
 6044TIP3    H244244   0.922   3.031   6.471 -1.4728 -2.7508  0.1672
 6045TIP3   OH244245   2.547   3.410   2.388  0.2280  0.0532 -0.2914
 6045TIP3    H144246   2.547   3.501   2.357 -0.0235 -0.1787 -0.9934
 6045TIP3    H244247   2.454   3.389   2.400  0.2539 -0.2849 -0.6590
 6046TIP3   OH244248   6.767   5.725   0.275 -0.0086  0.2927 -0.5040
 6046TIP3    H144249   6.824   5.784   0.226  1.3736  0.0733  0.7776
 6046TIP3    H244250   6.820   5.647   0.290 -1.8535 -1.4369 -2.3184
 6047TIP3   OH244251   2.093   2.940   6.974 -0.3277  0.6844 -0.0397
 6047TIP3    H144252   2.076   3.002   7.045 -1.0316 -0.5585  0.9097
 6047TIP3    H244253   2.015   2.884   6.972  0.1424  0.0443 -1.1094
 6048TIP3   OH244254   0.923   6.043   7.434  0.0717 -0.5045  0.2840
 6048TIP3    H144255   0.987   6.060   7.365  0.2082 -2.5175 -0.1581
 6048TIP3    H244256   0.845   6.090   7.406  0.6536  0.1119 -0.3453
 6049TIP3   OH244257   3.711   0.450   0.191 -0.1669 -0.4153 -0.3058
 6049TIP3    H144258   3.771   0.524   0.178 -0.8729  0.2729  0.2292
 6049TIP3    H244259   3.629   0.491   0.220 -1.1698 -1.2585 -1.8233
 6050TIP3   OH244260   3.585   6.518   6.255 -0.1636 -0.1886 -0.5454
 6050TIP3    H144261   3.517   6.579   6.284  1.4330  1.2670  0.3236
 6050TIP3    H244262   3.537   6.450   6.208 -2.3266  0.2152  0.9057
 6051TIP3   OH244263   7.806   4.044   0.481 -0.3993  0.0436 -0.2613
 6051TIP3    H144264   7.713   4.059   0.496 -0.5486 -0.3759 -0.7694
 6051TIP3    H244265   7.810   3.973   0.417  0.2675  0.2213 -0.4301
 6052TIP3   OH244266   5.944   6.051   1.979  0.0036 -0.2144  0.2775
 6052TIP3    H144267   5.895   6.130   2.003 -0.7035 -0.5231 -0.1366
 6052TIP3    H244268   6.036   6.076   1.990 -0.1895  0.8631 -0.4220
 6053TIP3   OH244269   6.189   7.053   7.920  0.2316  0.5093  0.4322
 6053TIP3    H144270   6.175   7.136   7.966  0.3596  0.7286  0.0794
 6053TIP3    H244271   6.105   7.035   7.878  1.1128  2.1725 -2.2445
 6054TIP3   OH244272   5.834   0.678   7.472  0.5215 -0.5807  0.0459
 6054TIP3    H144273   5.895   0.716   7.535  0.3522  0.3266 -0.3216
 6054TIP3    H244274   5.786   0.612   7.522  1.4275 -0.9292  0.4729
 6055TIP3   OH244275   6.873   0.935   1.909 -0.6135 -0.3897  0.0889
 6055TIP3    H144276   6.875   1.018   1.862  0.3174 -1.3113 -1.6210
 6055TIP3    H244277   6.955   0.933   1.958 -0.6042 -0.3330  0.0753
 6056TIP3   OH244278   2.359   3.917   0.242  0.3551  0.5969 -0.6271
 6056TIP3    H144279   2.322   3.988   0.295  2.7330  1.9361 -0.6460
 6056TIP3    H244280   2.388   3.853   0.307  0.4645  0.7914 -0.4830
 6057TIP3   OH244281   3.202   0.240   6.930 -0.0038  0.1865  0.0667
 6057TIP3    H144282   3.229   0.312   6.987  0.4189 -1.1296  1.6107
 6057TIP3    H244283   3.285   0.198   6.904 -0.2594  0.0367 -0.5178
 6058TIP3   OH244284   3.541   2.011   7.250 -0.2388 -0.0739  0.7607
 6058TIP3    H144285   3.454   2.023   7.212 -0.3821 -0.2352  1.0355
 6058TIP3    H244286   3.529   2.026   7.343 -0.3917 -2.0853  1.1083
 6059TIP3   OH244287   6.842   0.579   1.108 -0.0692  0.1246  0.5903
 6059TIP3    H144288   6.890   0.641   1.054 -1.1136  0.7914  0.4024
 6059TIP3    H244289   6.900   0.504   1.116  0.3625  0.2729 -0.9210
 6060TIP3   OH244290   4.148   4.296   1.508  0.2018 -0.6840  0.8169
 6060TIP3    H144291   4.212   4.228   1.524  1.3869  0.6530  2.1103
 6060TIP3    H244292   4.173   4.367   1.567 -2.8799 -0.3488  1.9519
 6061TIP3   OH244293   0.097   1.886   6.245 -0.8310 -0.2409 -0.2498
 6061TIP3    H144294   0.085   1.864   6.337  2.8195 -0.4956  0.3318
 6061TIP3    H244295   0.092   1.802   6.199  1.8264 -0.8549  0.4284
 6062TIP3   OH244296   0.646   1.623   5.782 -0.4474 -0.3227 -0.1136
 6062TIP3    H144297   0.677   1.709   5.757 -0.1215 -0.3707  0.1198
 6062TIP3    H244298   0.550   1.630   5.780 -0.4283  0.3467  0.9230
 6063TIP3   OH244299   5.909   4.197   1.021 -0.0811  0.4512  0.0437
 6063TIP3    H144300   5.977   4.177   0.957 -1.4642  0.6040 -1.5402
 6063TIP3    H244301   5.850   4.122   1.017 -0.6349  0.8561  0.5033
 6064TIP3   OH244302   5.432   1.227   7.809  0.2019  0.2168 -0.0944
 6064TIP3    H144303   5.451   1.165   7.879  0.5466 -1.2702 -1.4530
 6064TIP3    H244304   5.337   1.238   7.811  0.3311  1.5698  1.6769
 6065TIP3   OH244305   5.406   5.654   2.077 -0.1610 -0.3462  0.2488
 6065TIP3    H144306   5.434   5.665   2.168 -0.0123  2.1055 -0.0377
 6065TIP3    H244307   5.311   5.645   2.082 -0.0937 -0.8883  0.6731
 6066TIP3   OH244308   6.315   0.782   6.987  0.3862 -0.2491  0.5141
 6066TIP3    H144309   6.303   0.877   6.984 -0.5852 -0.2630  2.4862
 6066TIP3    H244310   6.339   0.764   7.078 -2.2058 -2.1522  0.9408
 6067TIP3   OH244311   2.072   6.411   6.785  0.5666  0.4928  0.1245
 6067TIP3    H144312   2.067   6.371   6.699  0.5601  0.7034  0.0256
 6067TIP3    H244313   2.031   6.348   6.844 -1.0618  1.1046 -0.2919
 6068TIP3   OH244314   6.688   0.594   2.834  0.8716  0.5260  0.4656
 6068TIP3    H144315   6.666   0.680   2.872  1.9096  0.8442  0.3901
 6068TIP3    H244316   6.629   0.533   2.878  1.5958  0.9695  2.1614
 6069TIP3   OH244317   3.875   3.410   6.399  0.5183 -0.3197 -0.0347
 6069TIP3    H144318   3.802   3.376   6.451  1.2460  0.2763  1.4619
 6069TIP3    H244319   3.889   3.344   6.332 -0.8522 -0.8475  0.1540
 6070TIP3   OH244320   2.981   3.787   1.337 -0.3789 -0.3366 -0.7559
 6070TIP3    H144321   2.957   3.877   1.315  2.5585  0.3016 -1.8691
 6070TIP3    H244322   3.010   3.749   1.254  0.1170 -1.7278  0.0263
 6071TIP3   OH244323   3.427   7.252   0.246 -0.1872  0.2741 -0.0310
 6071TIP3    H144324   3.502   7.300   0.279  1.8568 -2.0953 -0.8522
 6071TIP3    H244325   3.434   7.166   0.287 -0.7631 -0.9242 -2.2609
 6072TIP3   OH244326   1.842   7.880   0.433 -0.6092 -0.3357  0.5727
 6072TIP3    H144327   1.878   7.864   0.520  1.8444  0.5396 -0.2001
 6072TIP3    H244328   1.912   7.925   0.386 -1.9503 -0.5639 -1.7961
 6073TIP3   OH244329   6.218   0.571   5.464  0.1765  0.0988 -0.3061
 6073TIP3    H144330   6.226   0.592   5.557 -0.1094  1.0203 -0.4710
 6073TIP3    H244331   6.183   0.652   5.425 -3.2191 -1.3650 -0.6354
 6074TIP3   OH244332   5.802   0.321   0.535  1.0308 -0.0318 -0.9491
 6074TIP3    H144333   5.782   0.312   0.628 -1.7658  1.0287 -1.3600
 6074TIP3    H244334   5.812   0.231   0.503 -3.0581 -0.8468 -0.5119
 6075TIP3   OH244335   4.373   0.043   7.853 -0.0898 -0.1954 -0.0149
 6075TIP3    H144336   4.328   0.102   7.914  1.4713  0.8243  0.2199
 6075TIP3    H244337   4.303   0.004   7.802 -1.2697  1.0025  0.6053
 6076TIP3   OH244338   3.558   2.190   1.017  0.7848  0.9166 -0.2665
 6076TIP3    H144339   3.556   2.097   0.996 -0.2994  0.3653  2.0187
 6076TIP3    H244340   3.608   2.230   0.946  0.8204 -1.3205 -1.5672
 6077TIP3   OH244341   2.494   0.508   7.421 -0.7264 -0.2492  0.6732
 6077TIP3    H144342   2.480   0.479   7.511 -0.8907 -1.0251  0.4028
 6077TIP3    H244343   2.501   0.603   7.428  0.0406 -0.3615  1.6042
 6078TIP3   OH244344   6.321   7.723   7.154  0.7760 -0.2122 -0.4485
 6078TIP3    H144345   6.226   7.714   7.156  0.6990  0.2510 -1.3469
 6078TIP3    H244346   6.349   7.670   7.079  1.1945 -0.0992 -0.3755
 6079TIP3   OH244347   0.906   6.732   0.151  0.5999  0.6497 -0.0621
 6079TIP3    H144348   0.921   6.748   0.058 -1.0353  0.6855 -0.3488
 6079TIP3    H244349   0.990   6.753   0.193  1.4949  0.2304 -1.5579
 6080TIP3   OH244350   7.426   0.099   0.564 -0.0654 -0.1488  0.2043
 6080TIP3    H144351   7.496   0.163   0.547 -0.6845  0.7056  0.7500
 6080TIP3    H244352   7.436   0.078   0.657  1.4097 -2.4544 -0.3861
 6081TIP3   OH244353   2.998   0.446   7.297  0.2879 -0.1163 -0.0521
 6081TIP3    H144354   2.953   0.407   7.222  0.5837  1.6227 -1.2190
 6081TIP3    H244355   2.933   0.446   7.367 -0.1362 -1.4074 -0.4284
 6082TIP3   OH244356   7.842   6.628   7.063  0.1388  0.6969 -0.3243
 6082TIP3    H144357   7.771   6.596   7.007 -0.4369  0.1862  0.6737
 6082TIP3    H244358   7.922   6.596   7.021 -0.3232 -0.3630 -0.4290
 6083TIP3   OH244359   6.944   4.470   1.775  0.0168  0.3184  0.4454
 6083TIP3    H144360   6.979   4.499   1.859  2.4705 -0.2802 -0.3036
 6083TIP3    H244361   7.018   4.474   1.715 -1.6753  0.7916 -1.7489
 6084TIP3   OH244362   5.629   3.097   0.638 -0.3845  0.4405 -0.0661
 6084TIP3    H144363   5.649   3.082   0.730  0.6952  1.3758 -0.1291
 6084TIP3    H244364   5.547   3.146   0.639 -1.5546 -1.4000  0.2800
 6085TIP3   OH244365   1.284   7.425   0.749 -0.6207  0.1740  0.0612
 6085TIP3    H144366   1.248   7.388   0.669 -0.0725  1.3166 -0.7447
 6085TIP3    H244367   1.242   7.375   0.820 -0.3565 -1.5581 -0.9303
 6086TIP3   OH244368   3.522   1.429   7.120  0.1817 -0.4371  0.3351
 6086TIP3    H144369   3.500   1.340   7.148  0.8281  0.0709  2.6468
 6086TIP3    H244370   3.437   1.468   7.097 -0.4322 -0.8884  1.7223
 6087TIP3   OH244371   5.877   5.084   1.452 -0.0832  0.3110  0.0734
 6087TIP3    H144372   5.783   5.081   1.469 -0.7713  2.3283 -2.7105
 6087TIP3    H244373   5.902   5.174   1.471  1.0706  0.0548 -0.1662
 6088TIP3   OH244374   2.079   3.883   0.179 -0.1761 -0.4660  0.2465
 6088TIP3    H144375   2.047   3.957   0.231  1.0381 -0.4233  0.9828
 6088TIP3    H244376   2.170   3.905   0.160 -0.5981 -0.4714 -1.9983
 6089TIP3   OH244377   7.134   2.938   7.295  0.0709 -0.1402  0.3222
 6089TIP3    H144378   7.146   3.031   7.275  0.4531  0.1733  1.8968
 6089TIP3    H244379   7.126   2.896   7.209 -0.4371  1.3806 -0.4083
 6090TIP3   OH244380   2.770   0.737   7.151  0.3560 -0.3478 -0.0068
 6090TIP3    H144381   2.788   0.721   7.058 -0.5234  0.0852 -0.2633
 6090TIP3    H244382   2.738   0.654   7.184  0.9114 -0.5743 -0.0217
 6091TIP3   OH244383   5.626   5.081   2.429 -0.2851 -0.2798  0.2819
 6091TIP3    H144384   5.561   5.022   2.389  1.2588 -0.9633 -1.3440
 6091TIP3    H244385   5.680   5.023   2.483 -0.4011  0.1217  0.8358
 6092TIP3   OH244386   7.914   4.601   5.887  0.4574 -0.1150 -0.4983
 6092TIP3    H144387   7.985   4.566   5.833  0.9099  0.3090 -0.1789
 6092TIP3    H244388   7.845   4.535   5.880  1.1531 -0.8874 -0.2269
 6093TIP3   OH244389   7.801   3.789   0.417 -0.1729 -0.4102  0.3041
 6093TIP3    H144390   7.788   3.724   0.347  3.7457  0.0556 -1.0948
 6093TIP3    H244391   7.848   3.742   0.486  2.2455  0.6555 -0.5034
 6094TIP3   OH244392   4.710   5.238   0.654  0.2692  0.2282 -0.5467
 6094TIP3    H144393   4.663   5.167   0.697  0.1626  0.8563  0.4041
 6094TIP3    H244394   4.790   5.197   0.621 -0.3694 -0.5938 -1.1267
 6095TIP3   OH244395   5.739   3.334   6.886  0.1164  0.3043  0.5665
 6095TIP3    H144396   5.671   3.395   6.914 -0.5237 -0.4472  0.7054
 6095TIP3    H244397   5.821   3.378   6.906 -0.2731  2.1142 -1.4483
 6096TIP3   OH244398   2.709   7.378   6.061 -0.1937 -0.5626 -0.0274
 6096TIP3    H144399   2.731   7.414   6.148 -0.1648 -1.9174  0.5443
 6096TIP3    H244400   2.764   7.301   6.052 -1.5292 -1.4976 -0.4625
 6097TIP3   OH244401   5.562   2.737   7.641  0.2268  0.0148 -0.1554
 6097TIP3    H144402   5.583   2.726   7.734 -0.4260  0.9446  0.1123
 6097TIP3    H244403   5.474   2.773   7.640  0.5154  0.7414 -1.1117
 6098TIP3   OH244404   1.743   5.872   6.481  0.3948  0.3877 -0.1666
 6098TIP3    H144405   1.795   5.882   6.402  0.7692  0.1536  0.0504
 6098TIP3    H244406   1.652   5.882   6.452  0.3941 -1.5131 -0.9283
 6099TIP3   OH244407   7.337   5.078   0.417  0.2159 -0.0453 -0.8908
 6099TIP3    H144408   7.394   5.015   0.372  0.7347 -0.7586  0.6960
 6099TIP3    H244409   7.397   5.143   0.454 -0.0908 -0.1364 -0.2161
 6100TIP3   OH244410   1.188   0.604   0.135  0.2904 -0.1651  0.6671
 6100TIP3    H144411   1.250   0.614   0.207  0.5981 -1.1256  0.5558
 6100TIP3    H244412   1.192   0.511   0.113  0.1251  0.0898 -0.5177
 6101TIP3   OH244413   7.157   0.577   2.530 -0.3108  0.1620  0.4140
 6101TIP3    H144414   7.064   0.573   2.553 -0.6208  1.0256 -0.6209
 6101TIP3    H244415   7.192   0.647   2.586  0.2133 -1.5047  2.3025
 6102TIP3   OH244416   5.912   5.561   7.319 -0.3251 -1.2799 -0.1241
 6102TIP3    H144417   5.870   5.493   7.371 -1.9085  1.8952  3.2757
 6102TIP3    H244418   5.982   5.594   7.375 -0.1988  0.4018 -1.1874
 6103TIP3   OH244419   6.750   5.369   1.466 -0.2364  0.3003 -0.4224
 6103TIP3    H144420   6.731   5.448   1.516 -0.0062 -0.3189  0.6784
 6103TIP3    H244421   6.805   5.398   1.394  1.0094  0.9545  0.7489
 6104TIP3   OH244422   7.597   3.011   0.467  0.1376 -0.0499  0.2137
 6104TIP3    H144423   7.687   2.980   0.461 -0.1164 -0.4480 -2.2813
 6104TIP3    H244424   7.604   3.096   0.511  1.5294 -0.7045  1.3639
 6105TIP3   OH244425   6.739   0.549   0.304  0.0381  0.6625 -0.2462
 6105TIP3    H144426   6.799   0.486   0.342 -0.9516  0.2176  0.6144
 6105TIP3    H244427   6.733   0.620   0.368 -2.5668 -0.6495  1.1098
 6106TIP3   OH244428   6.813   1.768   1.553 -0.1239 -0.0140  0.1215
 6106TIP3    H144429   6.733   1.811   1.580  0.0232 -0.2648  0.9901
 6106TIP3    H244430   6.881   1.806   1.608 -0.0623 -1.6512  1.2354
 6107TIP3   OH244431   0.708   0.771   0.070  0.5496  0.0205 -0.1811
 6107TIP3    H144432   0.624   0.730   0.048  0.1648  2.0011 -2.9913
 6107TIP3    H244433   0.684   0.854   0.111  1.1222  0.3838 -0.5676
 6108TIP3   OH244434   1.733   5.833   7.658 -0.0196  0.0400 -0.0443
 6108TIP3    H144435   1.703   5.916   7.619  0.9543 -0.4381 -1.9531
 6108TIP3    H244436   1.688   5.828   7.742  0.2858  2.7692  0.3799
 6109TIP3   OH244437   4.828   5.061   5.951 -0.2090 -0.3066 -0.2791
 6109TIP3    H144438   4.804   5.140   6.000 -1.5120 -0.5029 -0.5626
 6109TIP3    H244439   4.749   5.038   5.902  0.9135 -0.3848 -2.1439
 6110TIP3   OH244440   1.748   5.781   0.396  0.1978  0.1348 -0.4872
 6110TIP3    H144441   1.798   5.819   0.469 -0.5518 -1.2800  0.8216
 6110TIP3    H244442   1.670   5.743   0.437  0.5415 -2.1595 -1.7624
 6111TIP3   OH244443   7.528   1.716   0.530 -0.7359 -0.2358 -0.0975
 6111TIP3    H144444   7.505   1.690   0.620 -0.6680  0.2480  0.0631
 6111TIP3    H244445   7.447   1.706   0.481 -0.7383 -0.6410 -0.0116
 6112TIP3   OH244446   6.779   6.764   6.864 -0.5727  0.1406 -0.5340
 6112TIP3    H144447   6.814   6.749   6.952 -1.0061  1.4122 -0.1102
 6112TIP3    H244448   6.722   6.689   6.847 -2.5849  1.1064  1.3995
 6113TIP3   OH244449   4.758   0.179   0.498  0.4686 -0.1049  0.6651
 6113TIP3    H144450   4.675   0.222   0.478  0.2957 -0.0044  1.5351
 6113TIP3    H244451   4.817   0.205   0.428 -0.8759 -2.1507 -1.3645
 6114TIP3   OH244452   4.693   3.277   1.831 -0.4968  0.1528 -0.1641
 6114TIP3    H144453   4.712   3.224   1.908 -0.2091 -1.7467 -1.4902
 6114TIP3    H244454   4.671   3.364   1.867  3.2642  0.4583  1.8719
 6115TIP3   OH244455   3.851   4.431   6.330  0.1034  0.0454 -0.4836
 6115TIP3    H144456   3.902   4.361   6.288  1.1009  0.4157  0.0626
 6115TIP3    H244457   3.865   4.508   6.275  1.6293  0.5995  0.5972
 6116TIP3   OH244458   5.097   0.565   0.991 -0.5378  0.3644  0.0724
 6116TIP3    H144459   5.002   0.581   0.995 -0.5835  0.1721 -0.1996
 6116TIP3    H244460   5.133   0.615   1.064 -1.0795 -1.2507  1.5042
 6117TIP3   OH244461   0.143   2.316   0.390  0.0433  0.3029 -0.1748
 6117TIP3    H144462   0.220   2.275   0.429 -0.3665  0.8083  1.2396
 6117TIP3    H244463   0.175   2.399   0.354  0.5258 -0.4050 -1.4303
 6118TIP3   OH244464   6.542   3.122   1.407  0.4973  0.3500 -0.0478
 6118TIP3    H144465   6.528   3.188   1.340 -0.0710  1.3378  1.0176
 6118TIP3    H244466   6.613   3.157   1.461  0.3659 -0.0228  0.3729
 6119TIP3   OH244467   7.319   6.232   7.251  0.5939  0.0313  0.3115
 6119TIP3    H144468   7.347   6.323   7.239  0.3322 -0.2341 -3.2749
 6119TIP3    H244469   7.400   6.186   7.275  0.9882  0.9471  0.8165
 6120TIP3   OH244470   4.615   6.551   1.046  0.0264 -0.2756  0.1043
 6120TIP3    H144471   4.642   6.640   1.064  1.3113 -0.4300 -0.9135
 6120TIP3    H244472   4.521   6.557   1.027 -0.1764  0.6398  1.3295
 6121TIP3   OH244473   2.985   1.607   0.896 -0.2277  0.0050  0.0076
 6121TIP3    H144474   2.894   1.633   0.881 -1.2569 -1.8755  2.3402
 6121TIP3    H244475   3.025   1.683   0.938 -1.2841  0.2084  0.6873
 6122TIP3   OH244476   0.973   7.923   1.373  0.3640 -0.0487 -0.4368
 6122TIP3    H144477   0.976   7.828   1.367  2.1344 -0.0215 -0.4225
 6122TIP3    H244478   0.897   7.947   1.321  0.3502 -1.4309 -1.1066
 6123TIP3   OH244479   3.896   4.145   0.338  0.5390  0.6896  0.1981
 6123TIP3    H144480   3.991   4.130   0.340  0.2827 -0.9772  1.3089
 6123TIP3    H244481   3.870   4.144   0.430 -0.3690  2.7186  0.0222
 6124TIP3   OH244482   1.289   6.611   1.538  0.6628  0.7156  0.1863
 6124TIP3    H144483   1.199   6.596   1.567  0.5645  1.3803  0.2400
 6124TIP3    H244484   1.280   6.648   1.450  0.9885 -2.9313 -1.5660
 6125TIP3   OH244485   2.313   0.367   6.435  0.3353  0.1072  0.2578
 6125TIP3    H144486   2.408   0.369   6.443  0.2893 -0.2215  0.8958
 6125TIP3    H244487   2.280   0.396   6.520 -0.1391  1.5128 -0.3802
 6126TIP3   OH244488   6.617   0.208   0.463  0.7556  0.3872  0.0317
 6126TIP3    H144489   6.649   0.230   0.375  1.6561  1.7911  0.6736
 6126TIP3    H244490   6.524   0.228   0.460  0.4136 -1.1590 -1.0674
 6127TIP3   OH244491   0.170   5.349   6.340  0.7950  0.1838 -0.2204
 6127TIP3    H144492   0.147   5.290   6.268  0.9325 -0.5415  0.3202
 6127TIP3    H244493   0.221   5.418   6.299  0.7428 -0.1433 -0.8488
 6128TIP3   OH244494   4.552   1.859   1.348  0.0313 -0.0233 -0.0192
 6128TIP3    H144495   4.511   1.901   1.423 -1.2116  0.6156 -1.0327
 6128TIP3    H244496   4.507   1.774   1.341 -0.6906  0.4137 -0.7491
 6129TIP3   OH244497   7.922   4.576   7.275  0.4417  0.3881  0.4861
 6129TIP3    H144498   7.848   4.631   7.300 -0.1895  0.1279 -0.7462
 6129TIP3    H244499   7.884   4.507   7.221  1.3613 -0.6838  1.1401
 6130TIP3   OH244500   8.012   3.002   0.785  0.0697  0.1729  0.2845
 6130TIP3    H144501   7.919   3.024   0.780  0.1397  0.2731 -1.0373
 6130TIP3    H244502   8.027   2.980   0.877 -0.5019  3.4793  1.2999
 6131TIP3   OH244503   1.723   7.084   1.080  0.2586  0.0373 -0.0889
 6131TIP3    H144504   1.747   7.037   1.160  0.6938  0.0489 -0.2082
 6131TIP3    H244505   1.726   7.177   1.105  0.4326  0.0425 -0.1293
 6132TIP3   OH244506   4.806   0.824   7.635  0.0364  0.4360 -0.2042
 6132TIP3    H144507   4.756   0.756   7.591 -1.7013 -0.4432  2.8109
 6132TIP3    H244508   4.849   0.872   7.565 -3.3794 -0.0722 -2.8913
 6133TIP3   OH244509   6.859   5.207   1.168 -0.4245  0.6382  0.7064
 6133TIP3    H144510   6.798   5.240   1.235  0.7005  2.2867  0.9819
 6133TIP3    H244511   6.920   5.280   1.154  0.3548 -0.2897 -0.9282
 6134TIP3   OH244512   7.354   2.048   6.235 -0.3153 -0.6803 -0.3978
 6134TIP3    H144513   7.439   2.011   6.211 -0.2289 -1.1390  0.5768
 6134TIP3    H244514   7.295   1.972   6.240 -1.0381 -0.2828 -1.9797
 6135TIP3   OH244515   5.818   0.222   6.971 -0.2886  0.2558  0.3024
 6135TIP3    H144516   5.881   0.240   6.902  0.2809  0.7403  0.9351
 6135TIP3    H244517   5.745   0.282   6.952 -0.8112 -0.6508 -0.7107
 6136TIP3   OH244518   4.014   0.921   0.583 -0.0920  0.1629 -0.3232
 6136TIP3    H144519   3.981   0.876   0.662  0.6050 -0.5673 -0.4342
 6136TIP3    H244520   3.936   0.959   0.544 -0.6329 -0.4913  0.0787
 6137TIP3   OH244521   6.143   4.543   7.561  0.4161  0.3312 -0.2431
 6137TIP3    H144522   6.090   4.501   7.628  1.8844  1.1736  1.5337
 6137TIP3    H244523   6.200   4.473   7.527  0.2093  0.0696 -0.0502
 6138TIP3   OH244524   2.632   2.141   1.200 -0.5010  0.4974 -0.0929
 6138TIP3    H144525   2.686   2.220   1.208 -1.5414  1.5400 -2.5358
 6138TIP3    H244526   2.547   2.167   1.236 -0.9970  0.6797 -1.3694
 6139TIP3   OH244527   7.332   1.275   5.759  0.7687 -0.2575  0.1430
 6139TIP3    H144528   7.385   1.208   5.802 -0.0123 -0.1513  1.3257
 6139TIP3    H244529   7.382   1.356   5.771  1.3534 -0.4908 -0.6341
 6140TIP3   OH244530   5.673   4.090   6.511  0.3720  0.0462  0.6248
 6140TIP3    H144531   5.612   4.110   6.581  0.6922  1.8238  0.4573
 6140TIP3    H244532   5.737   4.162   6.514  2.0249 -1.3482  0.3211
 6141TIP3   OH244533   1.204   2.958   0.717  0.2404 -0.7112 -0.0077
 6141TIP3    H144534   1.169   2.878   0.756  1.2382 -2.3194 -2.2246
 6141TIP3    H244535   1.298   2.945   0.715  0.4154  0.4991 -0.5301
 6142TIP3   OH244536   2.521   0.901   0.641 -0.4989  0.7516 -0.0947
 6142TIP3    H144537   2.466   0.980   0.645 -0.0304  1.0771  0.0471
 6142TIP3    H244538   2.495   0.850   0.718 -1.3901  0.3702 -0.6441
 6143TIP3   OH244539   5.170   0.179   1.333  0.8308  0.0264 -0.4706
 6143TIP3    H144540   5.222   0.255   1.358  0.9319  0.0991 -0.8862
 6143TIP3    H244541   5.221   0.104   1.362  1.4060  0.0811 -1.2943
 6144TIP3   OH244542   6.980   1.433   0.871 -0.1576 -0.4099  0.2282
 6144TIP3    H144543   6.964   1.525   0.893  1.5856  0.0908 -0.4188
 6144TIP3    H244544   6.971   1.429   0.776 -1.3854 -1.1892  0.3552
 6145TIP3   OH244545   1.051   5.366   7.400  0.3873  0.3582  0.6488
 6145TIP3    H144546   0.965   5.344   7.436  0.6413 -0.6329  0.6976
 6145TIP3    H244547   1.033   5.416   7.321 -0.2647 -0.6164  0.1670
 6146TIP3   OH244548   6.281   4.231   1.379  0.0574 -0.8095 -0.0591
 6146TIP3    H144549   6.261   4.240   1.286 -0.6502 -1.4763  0.0130
 6146TIP3    H244550   6.238   4.150   1.404  1.0611 -1.1509  0.6327
 6147TIP3   OH244551   4.649   1.229   2.139  0.0438  0.1123 -0.0423
 6147TIP3    H144552   4.629   1.150   2.089 -0.5371 -0.2932  0.8054
 6147TIP3    H244553   4.734   1.211   2.179 -0.5114 -0.4811  0.9030
 6148TIP3   OH244554   5.849   1.755   7.883  0.2942 -0.3041 -0.0856
 6148TIP3    H144555   5.844   1.844   7.847  0.1817 -1.1920 -2.4390
 6148TIP3    H244556   5.933   1.752   7.927  1.3036  0.3668 -1.8600
 6149TIP3   OH244557   4.675   1.715   0.624  0.5673 -0.5855  0.5640
 6149TIP3    H144558   4.622   1.635   0.626 -0.3833 -0.1479 -2.2430
 6149TIP3    H244559   4.692   1.730   0.531 -0.5199  3.2054  0.8052
 6150TIP3   OH244560   6.318   7.293   6.321 -0.1815 -0.0049  0.0743
 6150TIP3    H144561   6.377   7.306   6.247  0.4060 -2.7819 -0.0496
 6150TIP3    H244562   6.231   7.295   6.283 -0.0105  0.7638 -0.3022
 6151TIP3   OH244563   6.950   4.892   7.531  0.2884  0.4760 -0.1279
 6151TIP3    H144564   6.855   4.879   7.539  0.3167 -1.0623 -1.6938
 6151TIP3    H244565   6.988   4.822   7.585  0.5876  1.9009  1.5902
 6152TIP3   OH244566   0.418   1.026   6.754 -0.4795 -0.2830 -0.2061
 6152TIP3    H144567   0.466   0.994   6.677  0.3327 -0.9424  0.5515
 6152TIP3    H244568   0.374   1.105   6.723 -0.4454 -0.7190 -1.4423
 6153TIP3   OH244569   3.730   0.274   7.382 -0.0062 -0.0365 -0.4124
 6153TIP3    H144570   3.763   0.187   7.361 -0.2040  0.3273 -2.4363
 6153TIP3    H244571   3.765   0.293   7.470  0.4175 -1.9327 -0.1391
 6154TIP3   OH244572   4.853   7.648   6.708  0.4838 -0.0293 -0.3707
 6154TIP3    H144573   4.863   7.556   6.683  0.2944  0.6710 -3.4947
 6154TIP3    H244574   4.759   7.662   6.710  0.5137  0.1061  0.0489
 6155TIP3   OH244575   1.163   2.733   2.495 -0.6004 -0.4636  0.2529
 6155TIP3    H144576   1.135   2.737   2.586 -1.1984 -2.8643  0.2280
 6155TIP3    H244577   1.097   2.783   2.447 -0.8418 -0.0523  1.0021
 6156TIP3   OH244578   4.228   5.429   1.122  0.2489 -0.1208  0.2016
 6156TIP3    H144579   4.308   5.376   1.126  0.2461 -0.0845  0.7341
 6156TIP3    H244580   4.253   5.512   1.161  0.2531  0.2796 -0.6369
 6157TIP3   OH244581   6.836   5.513   7.434 -0.6298 -0.0557 -0.4523
 6157TIP3    H144582   6.889   5.550   7.364 -0.4740 -2.5319 -1.7617
 6157TIP3    H244583   6.889   5.441   7.469 -0.0321  1.9852  3.3569
 6158TIP3   OH244584   8.106   7.429   0.671 -0.0426  0.0886 -1.0202
 6158TIP3    H144585   8.178   7.370   0.646  0.3883 -0.4949  1.3146
 6158TIP3    H244586   8.141   7.477   0.746 -2.2028 -0.4915  0.4323
 6159TIP3   OH244587   1.652   0.662   5.679 -0.5175  0.1104 -0.6620
 6159TIP3    H144588   1.700   0.723   5.623 -0.4336  0.4833 -0.1993
 6159TIP3    H244589   1.575   0.637   5.627 -0.5491  0.6096 -0.8638
 6160TIP3   OH244590   6.189   4.240   6.863 -0.3806  0.7811 -0.9506
 6160TIP3    H144591   6.223   4.154   6.837 -0.3575  0.8362 -1.0969
 6160TIP3    H244592   6.112   4.253   6.807 -0.2633  0.9506 -1.0693
 6161TIP3   OH244593   3.112   0.263   0.858  0.1212 -0.2102  0.8706
 6161TIP3    H144594   3.171   0.336   0.840 -0.8236  0.4694  0.4032
 6161TIP3    H244595   3.154   0.214   0.928  1.7063 -0.3190 -0.1098
 6162TIP3   OH244596   4.302   0.290   7.111  0.0814 -0.2456  0.2377
 6162TIP3    H144597   4.262   0.319   7.029 -0.6829 -2.1831 -0.1340
 6162TIP3    H244598   4.237   0.309   7.178  0.8189  1.5979  0.4939
 6163TIP3   OH244599   2.950   4.056   1.248 -0.5414  0.2199 -0.6254
 6163TIP3    H144600   2.912   4.143   1.237  0.3649  0.7255  0.0914
 6163TIP3    H244601   3.030   4.058   1.197  1.1388  0.9241  1.8716
 6164TIP3   OH244602   2.386   1.738   6.317 -0.3043 -0.1438 -0.1366
 6164TIP3    H144603   2.451   1.808   6.323 -0.4844  0.1793 -1.5846
 6164TIP3    H244604   2.401   1.684   6.395  1.0539  0.4578  0.0436
 6165TIP3   OH244605   5.076   6.217   1.016 -0.4490 -0.1858 -0.0347
 6165TIP3    H144606   4.998   6.271   1.026 -1.0272 -0.9174 -0.4541
 6165TIP3    H244607   5.043   6.127   1.019  0.4264 -0.5042  0.1573
 6166TIP3   OH244608   6.935   4.235   7.528  0.3061  0.3801  0.2423
 6166TIP3    H144609   6.954   4.261   7.618  3.2050 -0.3547 -0.0472
 6166TIP3    H244610   6.994   4.162   7.511 -2.9293 -2.2109 -1.0472
 6167TIP3   OH244611   5.200   2.887   1.853  0.1343 -0.4522  0.5432
 6167TIP3    H144612   5.127   2.926   1.805 -1.5227 -1.9986  1.6878
 6167TIP3    H244613   5.166   2.804   1.885  2.3560 -1.1301  1.3050
 6168TIP3   OH244614   6.289   2.727   1.386 -0.0647  0.3710  0.5416
 6168TIP3    H144615   6.306   2.821   1.383 -0.5749  0.4662  0.4296
 6168TIP3    H244616   6.196   2.721   1.410 -0.7815 -0.0343 -2.0500
 6169TIP3   OH244617   2.817   3.340   0.555  0.2827  0.2946  0.2039
 6169TIP3    H144618   2.890   3.283   0.533  1.4137  2.5549 -2.5362
 6169TIP3    H244619   2.755   3.328   0.483 -1.0628  0.1142  1.3285
 6170TIP3   OH244620   5.736   0.277   0.792 -0.2679 -0.9727  0.1356
 6170TIP3    H144621   5.693   0.192   0.791 -0.6260 -0.8275  1.4898
 6170TIP3    H244622   5.771   0.286   0.880 -3.9306  2.0544  1.5273
 6171TIP3   OH244623   6.726   6.936   6.617  0.1230 -0.4549  0.0390
 6171TIP3    H144624   6.635   6.909   6.612 -0.0870  0.4056 -1.3568
 6171TIP3    H244625   6.761   6.889   6.693 -1.5070 -0.6797  0.6963
 6172TIP3   OH244626   1.573   2.582   1.854  0.2703  0.3735 -0.3371
 6172TIP3    H144627   1.525   2.609   1.776 -1.1956 -0.4536  0.2341
 6172TIP3    H244628   1.520   2.615   1.927  2.0909  1.9427  0.3480
 6173TIP3   OH244629   4.305   7.817   0.258  0.5013 -0.2269  0.2631
 6173TIP3    H144630   4.344   7.887   0.204 -1.3676  0.1948 -0.6171
 6173TIP3    H244631   4.317   7.738   0.206 -1.0389  0.1328 -0.7031
 6174TIP3   OH244632   1.440   5.791   1.262  0.4814  0.2709  0.2912
 6174TIP3    H144633   1.348   5.812   1.281  0.5625  0.2621  0.7141
 6174TIP3    H244634   1.485   5.875   1.262  0.6470  0.1979  1.0955
 6175TIP3   OH244635   5.284   4.251   1.477  0.5950  0.1900  0.2395
 6175TIP3    H144636   5.305   4.315   1.545 -1.8660  1.2712  0.0687
 6175TIP3    H244637   5.366   4.204   1.463  2.2059  2.4945  1.2186
 6176TIP3   OH244638   7.415   5.313   0.853 -0.4755 -0.2331 -0.1850
 6176TIP3    H144639   7.435   5.407   0.852  2.9819 -0.8173  1.2840
 6176TIP3    H244640   7.430   5.286   0.943  1.5231 -2.6713 -1.1087
 6177TIP3   OH244641   1.173   4.636   7.169 -0.5476 -0.5613  0.1611
 6177TIP3    H144642   1.104   4.634   7.235  0.2292  0.2924  1.0289
 6177TIP3    H244643   1.216   4.721   7.181  0.6338 -1.0555 -0.3844
 6178TIP3   OH244644   6.160   7.198   0.877 -0.3020  0.3956 -0.7845
 6178TIP3    H144645   6.159   7.104   0.893  1.7827  0.4273 -0.1253
 6178TIP3    H244646   6.209   7.208   0.795  0.7867  0.9458 -0.0965
 6179TIP3   OH244647   3.706   4.209   5.793  0.2949 -0.0782 -0.4958
 6179TIP3    H144648   3.697   4.114   5.787  0.8320 -0.0972 -1.1925
 6179TIP3    H244649   3.636   4.243   5.738  1.2017 -0.1250 -1.7367
 6180TIP3   OH244650   3.744   0.509   1.402 -0.3576  0.0558  0.2404
 6180TIP3    H144651   3.818   0.450   1.416 -0.1379  0.4740  0.9083
 6180TIP3    H244652   3.781   0.597   1.414 -0.9506  0.2699  0.5376
 6181TIP3   OH244653   0.968   4.116   1.042  0.4178  0.4882 -0.1489
 6181TIP3    H144654   0.924   4.031   1.038 -0.4425  0.9459 -0.8929
 6181TIP3    H244655   0.942   4.160   0.961  2.1662  0.8377 -0.5592
 6182TIP3   OH244656   6.263   6.228   7.367 -0.4921  0.1396  0.2272
 6182TIP3    H144657   6.275   6.298   7.430 -1.0479  0.8788 -0.4658
 6182TIP3    H244658   6.298   6.150   7.410 -1.1637  0.5537  1.5871
 6183TIP3   OH244659   5.177   8.074   0.201 -0.0969  0.0837  0.4914
 6183TIP3    H144660   5.106   8.026   0.245  0.3015  2.0681  3.5624
 6183TIP3    H244661   5.255   8.052   0.251  0.5541  1.7782  0.2837
 6184TIP3   OH244662   2.246   4.050   7.689 -0.0500  0.6512 -0.4169
 6184TIP3    H144663   2.253   3.983   7.621 -0.4161  1.5814 -1.3942
 6184TIP3    H244664   2.154   4.074   7.690 -0.2128  0.0385  1.0313
 6185TIP3   OH244665   7.513   4.362   7.270 -0.1400  0.3591 -0.2210
 6185TIP3    H144666   7.425   4.337   7.299  0.3220  2.2417  3.2997
 6185TIP3    H244667   7.498   4.436   7.211 -0.9291 -0.3371 -0.9383
 6186TIP3   OH244668   7.677   0.248   0.560  0.0626 -0.3478  0.1338
 6186TIP3    H144669   7.729   0.326   0.543 -0.0606 -0.5463 -1.2765
 6186TIP3    H244670   7.686   0.233   0.654  0.9079  0.7713  0.2516
 6187TIP3   OH244671   2.141   5.381   7.392 -0.1845 -0.3466 -0.0255
 6187TIP3    H144672   2.147   5.430   7.310 -0.6754 -1.4882 -0.7632
 6187TIP3    H244673   2.223   5.331   7.396 -1.3712 -2.5601 -1.3549
 6188TIP3   OH244674   6.956   4.250   6.108 -0.1213  0.8855  0.0116
 6188TIP3    H144675   6.892   4.208   6.051  0.3860 -2.2480  1.5442
 6188TIP3    H244676   7.029   4.271   6.051 -0.1943 -0.8681 -0.7787
 6189TIP3   OH244677   7.782   4.254   0.292 -0.2475  0.5561  0.1865
 6189TIP3    H144678   7.845   4.231   0.224 -1.0341 -2.5301  0.3633
 6189TIP3    H244679   7.803   4.195   0.364 -3.6664 -1.1450 -0.0199
 6190TIP3   OH244680   7.514   2.910   6.526  0.2100  0.1549  0.1647
 6190TIP3    H144681   7.582   2.973   6.504  0.6683 -0.7053 -0.9934
 6190TIP3    H244682   7.562   2.830   6.550 -0.3328  0.4307  2.3477
 6191TIP3   OH244683   2.954   6.094   7.775  0.2813 -0.3069 -0.2063
 6191TIP3    H144684   2.860   6.084   7.789  0.2198  1.0860  0.6003
 6191TIP3    H244685   2.984   6.007   7.750 -1.4309 -0.4887 -1.8717
 6192TIP3   OH244686   5.135   6.432   1.561  0.5520  0.4216 -0.2793
 6192TIP3    H144687   5.159   6.521   1.586 -0.5240  0.6562 -0.0498
 6192TIP3    H244688   5.187   6.414   1.483  1.6343  0.8193  0.3289
 6193TIP3   OH244689   5.277   4.756   1.560 -0.0054 -0.0797  0.1218
 6193TIP3    H144690   5.269   4.763   1.465 -1.5327  0.1771  0.2431
 6193TIP3    H244691   5.187   4.765   1.592  0.3748 -1.0442  1.5398
 6194TIP3   OH244692   3.876   5.307   0.073 -0.3715  0.2185  0.1252
 6194TIP3    H144693   3.915   5.225   0.043  0.6751  0.3846  0.9686
 6194TIP3    H244694   3.951   5.361   0.099 -1.1229  0.8002  1.1744
 6195TIP3   OH244695   5.997   7.454   6.782 -0.0503  0.3142 -0.5692
 6195TIP3    H144696   5.995   7.406   6.700  0.3521  0.9448 -0.9557
 6195TIP3    H244697   6.035   7.539   6.760 -0.2308  0.6117  0.2049
 6196TIP3   OH244698   6.003   1.616   7.639  0.0710 -0.0054  0.5099
 6196TIP3    H144699   5.954   1.541   7.604  1.3272 -0.7418  0.2878
 6196TIP3    H244700   6.025   1.592   7.728  0.6070  0.0430  0.3909
 6197TIP3   OH244701   3.072   4.742   5.627 -0.0449 -0.4253  0.5191
 6197TIP3    H144702   3.068   4.837   5.641 -0.8294 -0.4533  0.4777
 6197TIP3    H244703   3.062   4.732   5.533  4.2352 -0.3025 -0.1667
 6198TIP3   OH244704   1.776   3.770   1.186 -0.0945  0.1821  0.4363
 6198TIP3    H144705   1.843   3.794   1.122  0.2617  1.7334  1.3240
 6198TIP3    H244706   1.693   3.780   1.138  0.2175  0.0094 -0.1546
 6199TIP3   OH244707   6.832   4.744   0.600 -0.3631  0.2135  0.0849
 6199TIP3    H144708   6.841   4.767   0.693  0.7880  0.0120  0.0334
 6199TIP3    H244709   6.789   4.820   0.561 -2.3790 -0.3344  1.0452
 6200TIP3   OH244710   2.086   2.728   7.580  0.5162  0.3011  0.1024
 6200TIP3    H144711   2.136   2.792   7.631 -2.0347  2.5233  0.0726
 6200TIP3    H244712   2.039   2.781   7.515 -1.2827 -1.6935 -0.3366
 6201TIP3   OH244713   1.056   6.066   6.164 -0.1061  0.1930  0.4936
 6201TIP3    H144714   0.995   6.101   6.230 -1.2703 -0.0753 -0.3939
 6201TIP3    H244715   1.055   6.131   6.094 -0.2805 -0.3505 -0.0266
 6202TIP3   OH244716   5.818   5.608   0.411  0.4181 -0.0165  0.4340
 6202TIP3    H144717   5.903   5.645   0.437 -0.3454  1.8394  0.4297
 6202TIP3    H244718   5.812   5.625   0.317 -0.9002  1.9471  0.8249
 6203TIP3   OH244719   1.152   4.613   1.614  0.1584 -0.2147 -0.1243
 6203TIP3    H144720   1.187   4.667   1.684  1.1669  0.1317 -0.8613
 6203TIP3    H244721   1.185   4.525   1.632 -1.5027 -0.6285  1.0883
 6204TIP3   OH244722   6.644   4.991   7.171  0.2196 -0.0106 -0.3963
 6204TIP3    H144723   6.691   5.054   7.226  2.6492 -0.8994 -1.3162
 6204TIP3    H244724   6.605   5.044   7.102  0.4630  0.7116  0.0047
 6205TIP3   OH244725   3.620   5.306   7.375  0.5252  0.7894 -0.1952
 6205TIP3    H144726   3.707   5.290   7.413  0.6394 -2.1930 -1.4791
 6205TIP3    H244727   3.559   5.268   7.438  0.3860  0.1432 -0.7146
 6206TIP3   OH244728   6.619   7.744   0.010  0.4623  0.2335  0.0875
 6206TIP3    H144729   6.651   7.782   0.092 -0.8957 -0.2887  0.8926
 6206TIP3    H244730   6.602   7.652   0.031  0.4809 -0.0044 -0.8998
 6207TIP3   OH244731   4.675   1.988   0.906 -0.3842  0.3626 -0.4926
 6207TIP3    H144732   4.691   1.969   0.998  0.3587  0.6424 -0.5575
 6207TIP3    H244733   4.581   1.972   0.894 -0.5386  0.5840  0.3732
 6208TIP3   OH244734   3.316   6.356   6.643  0.2822 -0.0351  0.3389
 6208TIP3    H144735   3.365   6.433   6.613  0.7263 -0.5483 -0.2869
 6208TIP3    H244736   3.333   6.352   6.737 -0.5277  1.1752  0.5531
 6209TIP3   OH244737   2.654   2.072   7.602  0.2831  0.3498 -0.2390
 6209TIP3    H144738   2.671   1.990   7.648  2.4688  0.1137 -1.3212
 6209TIP3    H244739   2.568   2.100   7.633  0.1014 -1.6152  1.2133
 6210TIP3   OH244740   1.568   7.082   1.490 -0.6350  0.3425  0.1126
 6210TIP3    H144741   1.543   7.088   1.582  0.1747  2.9645  0.2440
 6210TIP3    H244742   1.577   7.173   1.462  1.3425 -0.4059 -1.9533
 6211TIP3   OH244743   1.005   0.930   1.027  0.3781  0.1654  0.0238
 6211TIP3    H144744   1.039   0.847   1.059  0.3937 -0.9571 -2.6386
 6211TIP3    H244745   0.998   0.985   1.105  0.8273 -2.1482  1.8043
 6212TIP3   OH244746   1.387   5.078   0.552  0.0919 -0.2109 -0.1948
 6212TIP3    H144747   1.332   5.106   0.479 -1.8733 -0.3387  1.1583
 6212TIP3    H244748   1.367   4.986   0.564  1.6310 -0.6203 -0.4724
 6213TIP3   OH244749   0.106   4.203   0.570  0.0002 -0.0382 -0.4904
 6213TIP3    H144750   0.032   4.149   0.596 -0.0158 -0.3388 -1.1416
 6213TIP3    H244751   0.109   4.273   0.636 -2.2759  1.3154 -1.7127
 6214TIP3   OH244752   0.666   1.946   7.266  0.0119  0.0071 -0.4108
 6214TIP3    H144753   0.634   1.913   7.182  1.3329  0.4560 -1.1178
 6214TIP3    H244754   0.595   1.927   7.328 -1.0461 -0.1950 -1.6440
 6215TIP3   OH244755   1.036   5.364   6.566  0.6739 -0.1573 -0.1965
 6215TIP3    H144756   1.079   5.279   6.555 -2.6330 -2.0528  0.3590
 6215TIP3    H244757   1.054   5.410   6.484  2.3367 -1.4470 -0.6265
 6216TIP3   OH244758   2.049   1.427   0.422 -0.0185 -0.0981 -0.1020
 6216TIP3    H144759   2.024   1.451   0.333 -2.1630  0.5208  0.6138
 6216TIP3    H244760   2.015   1.338   0.434  1.0653 -0.5386 -0.1712
 6217TIP3   OH244761   2.680   6.053   6.376 -0.1878  0.4911  0.0250
 6217TIP3    H144762   2.688   6.092   6.290 -1.5913  0.4609 -0.1462
 6217TIP3    H244763   2.713   6.119   6.436 -0.3634  1.0112 -0.4460
 6218TIP3   OH244764   7.427   6.829   7.691 -0.1999 -0.7359 -0.2872
 6218TIP3    H144765   7.350   6.824   7.748 -1.0073  2.6476 -0.8581
 6218TIP3    H244766   7.500   6.802   7.746 -1.4850 -1.9464  0.9194
 6219TIP3   OH244767   1.459   3.328   0.530  0.4199  0.6342 -0.0088
 6219TIP3    H144768   1.443   3.240   0.494 -1.4621  1.1356 -0.5549
 6219TIP3    H244769   1.490   3.312   0.619  1.9898 -0.5909 -0.7202
 6220TIP3   OH244770   4.464   2.121   0.372 -0.0183  0.0771 -0.9854
 6220TIP3    H144771   4.520   2.080   0.438 -0.9065 -0.0421 -0.2890
 6220TIP3    H244772   4.428   2.047   0.322  1.6262  0.2027 -2.4674
 6221TIP3   OH244773   3.126   6.430   7.293 -0.0022 -0.0867 -0.3873
 6221TIP3    H144774   3.194   6.482   7.251 -0.2504  0.6520  0.1046
 6221TIP3    H244775   3.053   6.491   7.306  0.3453 -0.0394  1.7870
 6222TIP3   OH244776   7.117   3.684   7.312 -0.7851  0.7572 -0.0713
 6222TIP3    H144777   7.091   3.650   7.398 -1.5869  0.0759 -0.5674
 6222TIP3    H244778   7.047   3.744   7.287  0.8761  3.3415  1.0344
 6223TIP3   OH244779   6.037   0.067   0.015  0.5754 -0.7046  0.3653
 6223TIP3    H144780   6.081   0.002  -0.040 -0.3948 -0.8090 -0.3201
 6223TIP3    H244781   6.022   0.141  -0.044 -3.9143 -2.2317 -0.7733
 6224TIP3   OH244782   4.491   4.107   0.197  0.3423  0.0068  0.0329
 6224TIP3    H144783   4.472   4.198   0.173  1.0469  0.3037  0.5941
 6224TIP3    H244784   4.586   4.102   0.201  0.2860 -0.2576  1.8589
 6225TIP3   OH244785   5.493   4.957   0.629 -0.1622 -0.0780 -0.1733
 6225TIP3    H144786   5.499   5.030   0.691 -1.8124 -0.7185  0.8165
 6225TIP3    H244787   5.427   4.986   0.566  1.2599  0.4278 -1.4946
 6226TIP3   OH244788   0.589   4.601   0.248  0.2940  0.3952 -0.1759
 6226TIP3    H144789   0.630   4.527   0.292 -0.8180 -1.2511 -1.7488
 6226TIP3    H244790   0.527   4.561   0.187 -0.5420  2.6496 -0.9063
 6227TIP3   OH244791   6.333   6.574   1.542  0.6703 -0.0794  0.0797
 6227TIP3    H144792   6.245   6.608   1.556  0.8637  0.1474  0.8016
 6227TIP3    H244793   6.378   6.591   1.625  1.3997 -0.1674 -0.2945
 6228TIP3   OH244794   7.540   7.743   6.681  0.1736  0.0324  0.1955
 6228TIP3    H144795   7.487   7.670   6.649 -0.9230  0.6026  0.6795
 6228TIP3    H244796   7.504   7.762   6.768 -2.1197  3.5683 -1.3171
 6229TIP3   OH244797   5.855   0.900   6.860 -0.3478 -0.4095 -0.4884
 6229TIP3    H144798   5.901   0.817   6.844  0.4488 -0.1983  0.5650
 6229TIP3    H244799   5.830   0.895   6.953 -0.9452  0.2292 -0.6079
 6230TIP3   OH244800   2.583   1.025   1.338  0.3246  0.2995  0.0243
 6230TIP3    H144801   2.525   1.091   1.300 -1.3274 -1.7590 -1.2959
 6230TIP3    H244802   2.596   0.961   1.268 -0.3343 -2.1278  1.9709
 6231TIP3   OH244803   1.387   7.151   7.586 -0.0268  0.3222 -0.7260
 6231TIP3    H144804   1.402   7.242   7.612  2.5911 -0.2485 -0.0001
 6231TIP3    H244805   1.323   7.119   7.649  1.1974  0.8844  0.8690
 6232TIP3   OH244806   2.045   2.412   7.370 -0.1961 -0.5427 -0.0452
 6232TIP3    H144807   2.041   2.335   7.427  1.3653 -1.1865 -0.7541
 6232TIP3    H244808   2.120   2.461   7.402 -1.4629  1.0092  0.7186
 6233TIP3   OH244809   3.258   2.140   0.824  0.3700 -0.7575  0.5887
 6233TIP3    H144810   3.194   2.098   0.882  0.1862 -1.1690  0.0915
 6233TIP3    H244811   3.325   2.174   0.883 -0.5498  0.1172  1.1613
 6234TIP3   OH244812   1.121   7.663   0.558  0.0116 -0.3092 -0.2038
 6234TIP3    H144813   1.141   7.641   0.467  0.2341  0.3694 -0.3271
 6234TIP3    H244814   1.065   7.591   0.588 -1.0748  0.0557 -1.2596
 6235TIP3   OH244815   1.504   3.722   6.768  0.2086  0.1683  0.3823
 6235TIP3    H144816   1.580   3.665   6.777 -0.4756 -0.6778  0.9252
 6235TIP3    H244817   1.530   3.804   6.812  1.1704  0.2708 -0.3564
 6236TIP3   OH244818   6.565   3.929   1.622  0.1976  0.1742 -0.0898
 6236TIP3    H144819   6.619   3.864   1.578  1.4585  0.6461  0.7164
 6236TIP3    H244820   6.559   4.002   1.560 -0.3567 -0.2754 -0.5761
 6237TIP3   OH244821   8.000   7.434   0.399 -0.4069 -0.0585 -0.4608
 6237TIP3    H144822   7.973   7.525   0.385 -2.0365 -0.2332  1.1530
 6237TIP3    H244823   8.043   7.434   0.484 -1.5396 -0.9638  0.1471
 6238TIP3   OH244824   7.532   1.006   7.734 -0.0329  0.8077  0.2046
 6238TIP3    H144825   7.509   1.099   7.740 -0.1045  0.7123  1.8894
 6238TIP3    H244826   7.614   0.999   7.783  0.8396  0.2341 -1.2726
 6239TIP3   OH244827   2.443   5.909   1.579 -0.3154  0.0037 -0.5692
 6239TIP3    H144828   2.480   5.871   1.659 -0.2497 -0.3101 -0.7485
 6239TIP3    H244829   2.473   5.851   1.509  0.7361  1.0228 -0.9830
 6240TIP3   OH244830   2.145   3.572   0.213 -0.4193 -0.0506  0.1477
 6240TIP3    H144831   2.124   3.605   0.301 -0.0406 -0.3589  0.3626
 6240TIP3    H244832   2.079   3.609   0.156  0.2872  1.4999  0.2877
 6241TIP3   OH244833   0.437   7.912   5.634  0.0508  0.0226  0.2681
 6241TIP3    H144834   0.517   7.938   5.680  1.9151 -3.3346 -0.7329
 6241TIP3    H244835   0.465   7.896   5.544 -1.8122 -1.0110 -0.1799
 6242TIP3   OH244836   4.950   1.551   6.566  0.8423 -0.0340  0.1980
 6242TIP3    H144837   4.890   1.503   6.623 -1.8211  0.7289 -1.8180
 6242TIP3    H244838   4.964   1.634   6.611 -1.7564  0.8346 -0.4494
 6243TIP3   OH244839   6.244   1.488   6.714  0.2080  0.2509  0.4977
 6243TIP3    H144840   6.197   1.480   6.631 -0.0729  2.2275  0.4181
 6243TIP3    H244841   6.323   1.436   6.702  0.5815  1.1579 -1.3439
 6244TIP3   OH244842   4.761   6.959   7.185  0.4777  0.4325 -0.3354
 6244TIP3    H144843   4.737   7.052   7.183  1.5378  0.8865  2.4472
 6244TIP3    H244844   4.852   6.958   7.154 -0.2134 -0.0743 -2.5393
 6245TIP3   OH244845   6.097   1.012   7.578  0.2641 -0.0590 -0.3116
 6245TIP3    H144846   6.057   1.091   7.614  0.3016  0.5386 -1.5535
 6245TIP3    H244847   6.025   0.966   7.535  0.4265 -0.2295 -0.4032
 6246TIP3   OH244848   6.613   2.130   6.451 -0.8669 -0.1725 -0.1108
 6246TIP3    H144849   6.628   2.047   6.496  0.5000  1.1257  2.0213
 6246TIP3    H244850   6.684   2.137   6.388  1.3058  0.9094  2.2537
 6247TIP3   OH244851   6.186   4.860   0.583  0.2066 -0.2212  0.3514
 6247TIP3    H144852   6.204   4.830   0.494  1.2128  0.3416  0.3513
 6247TIP3    H244853   6.244   4.935   0.595 -0.4167  0.1271  1.2442
 6248TIP3   OH244854   0.485   5.135   5.607  0.2810  0.7393  0.4971
 6248TIP3    H144855   0.438   5.171   5.683 -0.5961 -0.1185  0.3768
 6248TIP3    H244856   0.495   5.210   5.548 -1.5013  0.8258  0.2499
 6249TIP3   OH244857   7.528   1.275   7.728 -0.3598  0.6892 -0.0152
 6249TIP3    H144858   7.538   1.330   7.650 -1.8296  0.2922 -0.5185
 6249TIP3    H244859   7.490   1.334   7.794  1.9664  1.3365  0.8292
 6250TIP3   OH244860   3.367   2.911   7.657  0.2129 -0.0863 -0.0876
 6250TIP3    H144861   3.400   2.881   7.741  0.0046  0.7513  0.3063
 6250TIP3    H244862   3.273   2.891   7.659  0.7120 -3.2827 -1.5601
 6251TIP3   OH244863   2.362   4.031   5.714 -0.0584  0.4063 -0.1900
 6251TIP3    H144864   2.390   4.012   5.625  0.1930 -0.7437  0.1111
 6251TIP3    H244865   2.442   4.024   5.767 -0.3302  0.3398  0.2218
 6252TIP3   OH244866   3.661   2.448   0.157  0.4155  0.2898 -0.1742
 6252TIP3    H144867   3.682   2.356   0.173  0.6525  0.0267 -1.7846
 6252TIP3    H244868   3.649   2.486   0.244 -1.7019 -1.7169  0.5012
 6253TIP3   OH244869   7.033   0.427   0.231 -0.0714  0.6024  0.3865
 6253TIP3    H144870   7.027   0.352   0.290 -0.1658 -0.1751 -0.5733
 6253TIP3    H244871   7.002   0.393   0.147 -1.2132  2.0235  0.1904
 6254TIP3   OH244872   4.335   2.596   0.466 -0.0536  0.1814  0.3750
 6254TIP3    H144873   4.317   2.526   0.403  1.1049  0.5953 -0.4546
 6254TIP3    H244874   4.335   2.552   0.551 -0.2410 -0.6610 -0.0467
 6255TIP3   OH244875   7.601   2.894   1.939 -0.6412  0.7806  0.0246
 6255TIP3    H144876   7.624   2.813   1.893 -0.7091  1.1970 -0.7443
 6255TIP3    H244877   7.660   2.895   2.015 -0.2455  0.2974 -0.2697
 6256TIP3   OH244878   1.829   4.626   5.951 -0.3973 -0.1577  0.6554
 6256TIP3    H144879   1.755   4.686   5.962  0.0957  1.0701 -1.8369
 6256TIP3    H244880   1.789   4.539   5.948 -1.2991  0.1276  2.8011
 6257TIP3   OH244881   5.910   7.127   6.923  0.0293  0.7165  0.6946
 6257TIP3    H144882   5.868   7.207   6.957  1.6387  1.2824  1.4343
 6257TIP3    H244883   5.904   7.135   6.828 -1.8089  0.6092  0.7612
 6258TIP3   OH244884   6.110   2.616   7.778  0.1046 -0.2952 -0.5184
 6258TIP3    H144885   6.153   2.542   7.736  2.3914  0.2605  0.6791
 6258TIP3    H244886   6.105   2.592   7.870 -2.7384 -0.5315 -0.6380
 6259TIP3   OH244887   1.804   1.325   0.684  0.1009 -0.3341  0.2661
 6259TIP3    H144888   1.836   1.415   0.674 -1.4782  0.3031  0.7209
 6259TIP3    H244889   1.796   1.312   0.778  0.4425 -1.0174  0.2109
 6260TIP3   OH244890   5.261   6.641   1.846 -0.2871 -0.2051  0.3872
 6260TIP3    H144891   5.279   6.626   1.939 -2.5963 -4.0663  0.4859
 6260TIP3    H244892   5.324   6.586   1.800  0.4339  1.1974 -0.3635
 6261TIP3   OH244893   7.674   5.020   0.624  0.0291 -0.0076  0.4836
 6261TIP3    H144894   7.593   4.976   0.600 -0.1043  0.2753  0.4249
 6261TIP3    H244895   7.665   5.109   0.591  0.9693 -0.3750 -0.8176
 6262TIP3   OH244896   4.254   7.389   7.081 -0.2186  0.1719  0.2666
 6262TIP3    H144897   4.299   7.406   6.998  0.3125  0.6333  0.6416
 6262TIP3    H244898   4.251   7.294   7.087  1.3308  0.1062  0.5447
 6263TIP3   OH244899   5.451   7.018   1.597  0.2029 -0.2266 -0.3575
 6263TIP3    H144900   5.463   7.033   1.691 -0.3478  0.1948 -0.3497
 6263TIP3    H244901   5.359   6.997   1.588  0.1659  0.1415 -0.8557
 6264TIP3   OH244902   0.331   1.136   1.438  0.2986  0.1167  0.2457
 6264TIP3    H144903   0.336   1.134   1.534 -0.5069  0.6681  0.2996
 6264TIP3    H244904   0.263   1.072   1.416  1.0375 -0.6003 -0.0116
 6265TIP3   OH244905   7.896   3.673   0.664  0.2330 -0.5936 -0.5477
 6265TIP3    H144906   7.902   3.607   0.733 -0.8470 -0.5889 -0.4358
 6265TIP3    H244907   7.922   3.755   0.707 -2.4494 -0.1837  0.4836
 6266TIP3   OH244908   6.335   4.344   7.532  0.0476 -0.5417  0.5522
 6266TIP3    H144909   6.425   4.374   7.523 -0.5557  1.5245  0.8112
 6266TIP3    H244910   6.343   4.253   7.559  2.0094 -1.0340 -1.3836
 6267TIP3   OH244911   7.278   1.079   5.564 -0.1658 -0.2812 -0.1600
 6267TIP3    H144912   7.221   1.009   5.597  0.2890 -0.6363 -0.1234
 6267TIP3    H244913   7.278   1.144   5.635 -1.9082  0.5420 -0.8568
 6268TIP3   OH244914   4.896   6.177   7.493 -0.3259  0.1995  0.1141
 6268TIP3    H144915   4.932   6.091   7.471 -3.1011 -1.1657  0.4438
 6268TIP3    H244916   4.914   6.188   7.587  1.1775  0.6111 -0.2064
 6269TIP3   OH244917   6.358   6.470   5.542  0.3692  0.2275  0.0086
 6269TIP3    H144918   6.275   6.516   5.539 -0.5618 -1.4105 -0.7055
 6269TIP3    H244919   6.370   6.447   5.635 -0.2274  0.0562  0.0474
 6270TIP3   OH244920   7.288   5.491   2.627 -0.4344 -0.7148  0.4061
 6270TIP3    H144921   7.282   5.399   2.601 -0.6805 -0.3007 -1.1044
 6270TIP3    H244922   7.328   5.535   2.552  1.6459  0.1108  1.8991
 6271TIP3   OH244923   6.528   0.716   2.008 -0.0685  0.1089 -0.2844
 6271TIP3    H144924   6.453   0.660   1.991  0.7925 -1.0610 -0.3397
 6271TIP3    H244925   6.543   0.707   2.102  0.5560 -0.3907 -0.4268
 6272TIP3   OH244926   4.052   0.041   6.837  0.2925  0.0320  0.0758
 6272TIP3    H144927   4.071  -0.023   6.906  0.2052  1.7350  1.7522
 6272TIP3    H244928   4.132   0.092   6.829  0.4549 -0.3944 -1.4516
 6273TIP3   OH244929   6.375   7.651   2.109 -0.7100  0.2005  0.6283
 6273TIP3    H144930   6.296   7.643   2.161 -1.3790 -0.9269 -0.5004
 6273TIP3    H244931   6.423   7.569   2.124 -0.4268  0.2925  0.2570
 6274TIP3   OH244932   6.915   4.237   2.497  0.3343  0.2263  0.5773
 6274TIP3    H144933   6.855   4.290   2.445 -2.5378 -1.9665  1.4285
 6274TIP3    H244934   6.930   4.289   2.576 -1.2109  0.4245  0.7637
 6275TIP3   OH244935   3.633   7.531   5.867  0.1907 -0.2463 -0.0015
 6275TIP3    H144936   3.674   7.611   5.900  3.2769 -2.0877  1.0176
 6275TIP3    H244937   3.690   7.503   5.795 -2.2879 -0.2489 -2.0959
 6276TIP3   OH244938   1.239   3.630   2.198  0.4147  0.1565 -0.0781
 6276TIP3    H144939   1.318   3.678   2.173 -0.1101 -0.0668 -2.3672
 6276TIP3    H244940   1.171   3.664   2.141 -0.7768 -0.8661  0.6743
 6277TIP3   OH244941   3.739   0.758   5.347 -0.1479 -0.3887  0.0206
 6277TIP3    H144942   3.762   0.850   5.362 -2.1229  0.1119  0.2279
 6277TIP3    H244943   3.748   0.717   5.433 -3.4678  0.6425  0.9852
 6278TIP3   OH244944   6.360   2.482   6.109  0.1351  0.5507 -0.5403
 6278TIP3    H144945   6.296   2.473   6.038 -0.5849 -0.0912  0.1645
 6278TIP3    H244946   6.347   2.571   6.141 -0.4730  0.3999 -0.3546
 6279TIP3   OH244947   2.580   7.423   6.721  0.3033 -0.3868 -0.2397
 6279TIP3    H144948   2.665   7.396   6.685  0.1585 -0.9863 -0.1569
 6279TIP3    H244949   2.587   7.406   6.815 -0.0084 -0.7342 -0.2754
 6280TIP3   OH244950   0.097   3.160   0.022 -0.3276 -0.0673  0.3243
 6280TIP3    H144951   0.056   3.246   0.014 -0.7303  0.1029  3.0571
 6280TIP3    H244952   0.142   3.164   0.107  0.9579 -2.0343 -0.2165
 6281TIP3   OH244953   3.196   2.859   6.750  0.5764  0.2231  0.0378
 6281TIP3    H144954   3.233   2.940   6.715  1.1835  0.7019  1.7010
 6281TIP3    H244955   3.110   2.852   6.708  0.8149  1.3397 -0.6832
 6282TIP3   OH244956   4.817   3.807   0.319 -0.3241  0.2213  0.1148
 6282TIP3    H144957   4.784   3.861   0.391 -0.1864 -0.5000  0.7295
 6282TIP3    H244958   4.738   3.778   0.272 -0.4763 -0.1136  0.5721
 6283TIP3   OH244959   1.713   0.185   6.621 -0.5846 -0.5327 -0.5532
 6283TIP3    H144960   1.634   0.230   6.649 -0.0124  0.8011 -1.0116
 6283TIP3    H244961   1.782   0.250   6.628  0.5638 -1.7789  0.1925
 6284TIP3   OH244962   1.373   2.030   1.808 -0.6370 -0.0127 -0.2312
 6284TIP3    H144963   1.333   2.109   1.844  0.6568  0.6479 -0.1933
 6284TIP3    H244964   1.457   2.059   1.773  0.8920 -1.7100  1.7458
 6285TIP3   OH244965   0.476   6.864   7.539 -0.2781 -0.0960  0.2273
 6285TIP3    H144966   0.544   6.901   7.483 -1.6433  0.4127 -1.1907
 6285TIP3    H244967   0.500   6.892   7.628  2.1021 -1.1561 -0.0076
 6286TIP3   OH244968   5.166   1.175   7.467 -0.0689 -0.3235  0.3527
 6286TIP3    H144969   5.245   1.142   7.423  0.0795  0.7712 -0.2252
 6286TIP3    H244970   5.162   1.267   7.444 -1.1631 -0.2089  0.9279
 6287TIP3   OH244971   6.952   2.387   5.844  0.4233 -0.4850 -0.5016
 6287TIP3    H144972   6.898   2.459   5.811 -0.7488 -1.6116 -1.1148
 6287TIP3    H244973   6.978   2.339   5.766 -1.4720 -2.5629  0.0627
 6288TIP3   OH244974   5.479   1.993   5.846 -0.1883  0.3062 -0.4159
 6288TIP3    H144975   5.556   1.973   5.792  0.8029  0.6895  0.7993
 6288TIP3    H244976   5.478   1.924   5.912 -0.3159  0.8618  0.1652
 6289TIP3   OH244977   2.800   7.946   7.785 -0.0768  0.4523  0.2878
 6289TIP3    H144978   2.718   7.951   7.834 -0.0681 -0.1090  0.3693
 6289TIP3    H244979   2.796   8.020   7.724 -0.0850  1.1640  1.1336
 6290TIP3   OH244980   7.263   5.575   0.735 -0.3961 -0.5296  0.0422
 6290TIP3    H144981   7.311   5.653   0.708 -0.5631 -0.5870 -0.4447
 6290TIP3    H244982   7.188   5.572   0.675 -0.5751 -0.8744  0.2792
 6291TIP3   OH244983   3.733   5.530   2.130 -0.4052  0.6663  0.3459
 6291TIP3    H144984   3.666   5.463   2.113  1.7780 -1.4611 -0.5081
 6291TIP3    H244985   3.741   5.533   2.225 -0.7074 -0.1539  0.4102
 6292TIP3   OH244986   3.050   2.309   6.529  0.1935  0.2549  0.0664
 6292TIP3    H144987   3.009   2.388   6.564 -1.2484  0.1209 -1.2252
 6292TIP3    H244988   3.125   2.342   6.479  0.5495  0.6622  0.8480
 6293TIP3   OH244989   5.878   2.452   0.111  0.2017 -0.2338 -0.0733
 6293TIP3    H144990   5.947   2.445   0.044 -0.6044  0.8901 -1.0816
 6293TIP3    H244991   5.805   2.402   0.075  0.0384 -0.2877  0.3394
 6294TIP3   OH244992   6.804   5.213   1.868 -0.0168  1.4119  0.0719
 6294TIP3    H144993   6.789   5.202   1.962  0.6263 -0.4542 -0.0145
 6294TIP3    H244994   6.767   5.299   1.848 -2.5671  0.7555  1.5363
 6295TIP3   OH244995   1.276   1.673   0.492 -0.2347 -0.0351  0.2043
 6295TIP3    H144996   1.319   1.750   0.528  1.3418 -1.1543  0.8411
 6295TIP3    H244997   1.183   1.692   0.496  0.1050  1.5483  0.9806
 6296TIP3   OH244998   3.418   0.755   1.488 -0.1372  0.0115 -0.4641
 6296TIP3    H144999   3.485   0.803   1.537  0.2974 -1.4657  0.4396
 6296TIP3    H245000   3.350   0.735   1.553 -0.6054 -0.0663 -0.9675
 6297TIP3   OH245001   6.066   0.047   6.879  0.0122  0.2021  0.2053
 6297TIP3    H145002   6.060  -0.011   6.803  0.3149  1.4551 -0.8054
 6297TIP3    H245003   6.159   0.070   6.885 -0.2228  1.2209  0.0866
 6298TIP3   OH245004   8.051   5.820   0.450  1.3002 -0.0565 -0.1705
 6298TIP3    H145005   8.143   5.816   0.422  1.6055  0.1012  0.7625
 6298TIP3    H245006   8.055   5.808   0.545  0.2156 -1.5334 -0.2921
 6299TIP3   OH245007   5.483   6.522   1.958 -0.2915 -0.2293  0.1192
 6299TIP3    H145008   5.424   6.534   2.032 -0.3188  0.3240  0.0078
 6299TIP3    H245009   5.514   6.610   1.937 -0.0683 -0.4171 -0.3516
 6300TIP3   OH245010   5.331   0.077   7.519  0.1210  0.5340 -0.1692
 6300TIP3    H145011   5.266   0.049   7.454 -0.5217  0.4168  0.5176
 6300TIP3    H245012   5.282   0.134   7.578  0.4673 -0.1211  0.7665
 6301TIP3   OH245013   4.385   3.326   1.291 -0.3139  0.3659  0.4797
 6301TIP3    H145014   4.373   3.362   1.203  2.0244 -0.3246 -0.2014
 6301TIP3    H245015   4.319   3.369   1.344 -1.0903  1.6099 -1.3949
 6302TIP3   OH245016   5.640   1.068   6.742 -0.0751 -0.3460  0.3162
 6302TIP3    H145017   5.724   1.036   6.773  0.0465 -0.3307  0.0041
 6302TIP3    H245018   5.579   1.047   6.812  0.0016 -1.2534  0.1174
 6303TIP3   OH245019   7.935   1.221   5.291  1.0815 -0.1896  0.0212
 6303TIP3    H145020   7.918   1.269   5.210  0.8452  2.0294  1.3020
 6303TIP3    H245021   7.850   1.184   5.315  0.7892  0.4830  0.0499
 6304TIP3   OH245022   3.964   6.455   7.082 -0.4181 -0.6750  0.3847
 6304TIP3    H145023   4.019   6.424   7.155  1.7829  0.3939 -0.7234
 6304TIP3    H245024   3.935   6.541   7.109 -1.6427 -1.2541  0.9855
 6305TIP3   OH245025   1.924   7.848   1.991 -0.2968 -0.5580 -0.3761
 6305TIP3    H145026   1.856   7.780   1.992 -0.3388 -0.5558  1.9003
 6305TIP3    H245027   1.879   7.927   2.018  0.4821 -0.4450  0.6505
 6306TIP3   OH245028   7.322   0.806   5.425  0.7804 -0.4369 -0.1195
 6306TIP3    H145029   7.271   0.775   5.500 -1.4541  1.3463 -0.7819
 6306TIP3    H245030   7.377   0.732   5.401 -0.1592 -1.8534  1.8095
 6307TIP3   OH245031   0.401   1.025   5.981  0.3352 -0.1037 -0.0192
 6307TIP3    H145032   0.422   1.114   5.956  1.8598 -0.3806  0.1724
 6307TIP3    H245033   0.306   1.021   5.979  0.2242  1.6432  0.4086
 6308TIP3   OH245034   0.198   5.279   6.643 -0.3047 -0.2298 -0.1868
 6308TIP3    H145035   0.292   5.258   6.642 -0.2913 -0.4411  1.6933
 6308TIP3    H245036   0.165   5.245   6.561  1.2144 -0.4492 -0.7385
 6309TIP3   OH245037   7.191   3.987   6.003  0.2391  0.2460  0.2949
 6309TIP3    H145038   7.202   3.974   5.908  1.0253  0.7802  0.3020
 6309TIP3    H245039   7.096   3.988   6.016  0.1073  0.8526 -0.5950
 6310TIP3   OH245040   3.769   0.740   1.775 -0.1146  0.2921 -0.1210
 6310TIP3    H145041   3.734   0.722   1.862  0.7169 -0.9099 -0.0107
 6310TIP3    H245042   3.814   0.659   1.749 -1.8307 -0.0381 -2.4098
 6311TIP3   OH245043   6.242   1.481   7.146  0.6886 -0.4236 -0.4326
 6311TIP3    H145044   6.187   1.441   7.079 -0.2262 -1.0384  0.6560
 6311TIP3    H245045   6.225   1.430   7.225 -0.4591  2.0035  1.0010
 6312TIP3   OH245046   3.132   5.480   0.911  0.2992  0.1265 -0.7912
 6312TIP3    H145047   3.187   5.550   0.947  0.0101  0.1230 -0.3484
 6312TIP3    H245048   3.154   5.480   0.817  1.6300 -0.3803 -0.5050
 6313TIP3   OH245049   5.065   0.136   6.849 -0.3927  0.1909 -0.2777
 6313TIP3    H145050   4.984   0.187   6.852 -1.1138 -0.9394  0.0718
 6313TIP3    H245051   5.070   0.103   6.759  0.4525  1.4237 -0.7163
 6314TIP3   OH245052   1.822   5.181   0.703 -0.4904 -0.0425  0.3485
 6314TIP3    H145053   1.776   5.113   0.654 -1.2536  0.2008  0.7023
 6314TIP3    H245054   1.752   5.236   0.738  0.1248  2.5281 -2.1319
 6315TIP3   OH245055   4.054   5.945   7.430 -1.3559  0.2535  0.3519
 6315TIP3    H145056   4.063   5.850   7.438  0.7527  0.2951 -0.6610
 6315TIP3    H245057   3.970   5.958   7.386 -1.1322 -1.2268 -0.5815
 6316TIP3   OH245058   7.054   6.708   0.231  0.2465 -0.0921  0.3071
 6316TIP3    H145059   7.115   6.769   0.190 -0.8833  0.2128 -0.9944
 6316TIP3    H245060   7.080   6.622   0.200 -1.1497  0.2068 -1.9121
 6317TIP3   OH245061   1.857   6.619   6.162 -0.5505  0.2929  0.6595
 6317TIP3    H145062   1.871   6.620   6.257 -1.6776  0.0196  0.8408
 6317TIP3    H245063   1.763   6.604   6.152 -0.1858 -1.5644 -0.5258
 6318TIP3   OH245064   3.704   4.479   7.354 -0.4009  0.1409  0.1901
 6318TIP3    H145065   3.676   4.540   7.285  0.1672 -0.0733 -0.2413
 6318TIP3    H245066   3.677   4.521   7.436 -1.4382  0.2139 -0.1714
 6319TIP3   OH245067   1.576   2.660   6.573 -0.0127 -0.1115  0.1305
 6319TIP3    H145068   1.488   2.637   6.542 -0.2916 -0.6154  1.2548
 6319TIP3    H245069   1.632   2.590   6.539 -0.1041 -0.0014 -0.2555
 6320TIP3   OH245070   2.878   0.716   6.910 -0.3861  0.4498  0.8664
 6320TIP3    H145071   2.951   0.654   6.914  1.0471  2.0242  0.0545
 6320TIP3    H245072   2.820   0.681   6.842  1.4840  1.0909 -1.1331
 6321TIP3   OH245073   2.357   4.983   6.171  0.0947 -0.4170  0.4862
 6321TIP3    H145074   2.419   5.052   6.193 -1.7526  1.9041 -1.1562
 6321TIP3    H245075   2.391   4.945   6.090  1.3312 -1.7987  1.6073
 6322TIP3   OH245076   1.913   3.031   7.807 -0.2365 -0.5102  0.2677
 6322TIP3    H145077   1.924   3.075   7.723  0.5076  0.7426  0.9867
 6322TIP3    H245078   1.826   2.992   7.803 -0.0240 -0.8690 -1.2540
 6323TIP3   OH245079   2.095   0.070   6.046  0.2735  0.1471  0.5260
 6323TIP3    H145080   2.152   0.119   5.987 -0.0761 -0.9236 -0.7668
 6323TIP3    H245081   2.100   0.117   6.129  1.3450  1.3021 -0.1504
 6324TIP3   OH245082   1.284   2.911   1.064 -0.0774 -0.0011  0.6641
 6324TIP3    H145083   1.234   2.871   0.993  0.3369  0.6042  0.0145
 6324TIP3    H245084   1.375   2.886   1.047  0.3571  2.0556 -0.4071
 6325TIP3   OH245085   2.256   3.035   0.951  0.3062 -0.5215  0.3867
 6325TIP3    H145086   2.262   2.941   0.969  1.3453 -0.8098 -1.1782
 6325TIP3    H245087   2.305   3.046   0.869  3.0221  1.8580  2.1533
 6326TIP3   OH245088   4.726   6.938   7.468  0.0737 -0.3752  0.0069
 6326TIP3    H145089   4.695   6.966   7.382  0.1523  0.6591  0.2926
 6326TIP3    H245090   4.822   6.933   7.458  0.0127 -1.2451 -0.2288
 6327TIP3   OH245091   6.468   6.894   6.461 -0.2921 -0.3875 -0.0749
 6327TIP3    H145092   6.431   6.973   6.500 -1.1409 -0.8611  0.1174
 6327TIP3    H245093   6.521   6.925   6.388 -0.3001  0.3770  0.2364
 6328TIP3   OH245094   2.779   3.585   7.344 -0.0844 -0.3349 -0.2716
 6328TIP3    H145095   2.725   3.524   7.394 -0.3528 -0.0017 -0.1491
 6328TIP3    H245096   2.754   3.571   7.253  0.9771 -1.5090 -0.4068
 6329TIP3   OH245097   7.175   7.033   0.276  0.2642 -0.1975  0.5427
 6329TIP3    H145098   7.198   7.030   0.369 -0.0127 -2.1426  0.5805
 6329TIP3    H245099   7.232   6.968   0.235 -0.5588 -0.3262 -0.4271
 6330TIP3   OH245100   0.754   2.520   0.027 -0.2775 -0.8235 -0.3454
 6330TIP3    H145101   0.809   2.586  -0.015 -1.3814  0.4300  0.1147
 6330TIP3    H245102   0.803   2.438   0.018  0.5303 -0.1918 -2.0873
 6331TIP3   OH245103   6.635   1.728   7.296 -0.7439  0.5022 -0.0372
 6331TIP3    H145104   6.670   1.675   7.224 -1.0546  1.1051 -0.6438
 6331TIP3    H245105   6.581   1.667   7.346 -0.4655  0.0554 -0.2702
 6332TIP3   OH245106   7.182   7.950   6.277 -0.0377 -0.1125  0.0162
 6332TIP3    H145107   7.237   7.944   6.355 -0.9990  0.7849  0.7922
 6332TIP3    H245108   7.192   7.865   6.233 -0.6495 -1.2105  1.9135
 6333TIP3   OH245109   4.560   5.246   6.952  0.0264  0.4663 -0.9946
 6333TIP3    H145110   4.655   5.252   6.948  0.1375 -1.1923 -1.6152
 6333TIP3    H245111   4.529   5.319   6.899  1.0672 -1.0005 -3.8977
 6334TIP3   OH245112   5.186   3.742   0.021  0.0516  0.1544  0.1350
 6334TIP3    H145113   5.221   3.795  -0.050 -0.2520  1.0238  0.6198
 6334TIP3    H245114   5.126   3.800   0.067  1.1002 -0.0050  1.8009
 6335TIP3   OH245115   1.989   3.303   6.812  0.0418 -0.0434 -0.1006
 6335TIP3    H145116   1.997   3.380   6.869  2.5829  0.4853 -1.0414
 6335TIP3    H245117   1.916   3.324   6.754 -1.6241  0.0440  1.8848
 6336TIP3   OH245118   5.349   3.647   1.575  0.1871 -0.7515 -0.6003
 6336TIP3    H145119   5.418   3.637   1.509 -0.4633 -1.6211 -1.1736
 6336TIP3    H245120   5.275   3.599   1.539 -0.3589 -0.7759  0.5295
 6337TIP3   OH245121   5.335   6.715   6.929  0.3740 -0.3039  0.7777
 6337TIP3    H145122   5.284   6.734   7.008 -0.9285  1.5619 -0.4295
 6337TIP3    H245123   5.426   6.717   6.959 -0.0946  0.2051  2.2726
 6338TIP3   OH245124   5.693   6.293   6.458  0.3765  0.4204  0.3101
 6338TIP3    H145125   5.737   6.247   6.386 -1.0381  1.2811 -1.1923
 6338TIP3    H245126   5.714   6.386   6.443 -2.2902  0.9597 -0.8741
 6339TIP3   OH245127   6.549   8.109   5.812 -0.3168 -0.3727  0.4021
 6339TIP3    H145128   6.627   8.072   5.855  1.9236  3.2720 -0.0693
 6339TIP3    H245129   6.531   8.049   5.740  1.6507 -1.7458  0.9618
 6340TIP3   OH245130   5.249   6.486   6.526 -0.0966  0.5188 -0.0151
 6340TIP3    H145131   5.287   6.399   6.538 -0.1304  0.6175  0.8475
 6340TIP3    H245132   5.221   6.488   6.434  0.3179 -0.2118 -0.1599
 6341TIP3   OH245133   3.973   1.091   6.435  0.5129  0.3533 -0.9023
 6341TIP3    H145134   4.029   1.133   6.501 -1.6498  1.0271  0.6154
 6341TIP3    H245135   4.001   0.999   6.435  1.5394  0.6430 -0.1173
 6342TIP3   OH245136   6.214   7.098   7.228  0.1254 -0.5832 -0.5538
 6342TIP3    H145137   6.232   7.044   7.151 -0.7403  0.7651 -1.7418
 6342TIP3    H245138   6.262   7.179   7.211 -1.1104  0.2171 -0.2888
 6343TIP3   OH245139   0.745   8.106   0.288  0.0236 -0.2919 -0.1443
 6343TIP3    H145140   0.710   8.160   0.217 -1.9202  0.2729  1.1638
 6343TIP3    H245141   0.722   8.153   0.368  0.8990 -1.6065  0.9281
 6344TIP3   OH245142   4.990   6.188   7.776 -0.0916 -0.2509 -0.1878
 6344TIP3    H145143   5.069   6.224   7.816 -1.4571  0.6055  1.9378
 6344TIP3    H245144   5.010   6.096   7.763  0.6232 -0.5096  2.2091
 6345TIP3   OH245145   6.001   0.200   1.529 -0.2926  0.1832  0.0993
 6345TIP3    H145146   6.018   0.241   1.613 -1.2976 -0.5547  0.6886
 6345TIP3    H245147   5.987   0.107   1.549 -3.2321  0.3953 -0.4335
 6346TIP3   OH245148   1.433   5.529   7.546  0.2133 -0.2770  0.5755
 6346TIP3    H145149   1.409   5.516   7.454  1.5216  0.4970  0.0977
 6346TIP3    H245150   1.526   5.552   7.543 -0.0692  1.2055  1.9778
 6347TIP3   OH245151   5.458   7.560   1.148  0.4634 -0.2377 -0.2308
 6347TIP3    H145152   5.541   7.597   1.116  1.3437 -2.6310 -0.8815
 6347TIP3    H245153   5.397   7.573   1.076  1.1145 -1.2057 -0.9681
 6348TIP3   OH245154   1.848   6.845   7.540  0.2093 -0.2605 -0.5382
 6348TIP3    H145155   1.759   6.831   7.509 -0.2931  2.3099 -0.5396
 6348TIP3    H245156   1.863   6.939   7.528  2.2183 -0.2540  1.2820
 6349TIP3   OH245157   5.041   5.407   0.591 -0.5470  0.1258 -0.8412
 6349TIP3    H145158   4.998   5.323   0.579 -1.8574  0.6955 -0.3126
 6349TIP3    H245159   5.129   5.385   0.621 -0.5418 -1.0588 -1.6753
 6350TIP3   OH245160   6.675   0.644   7.046  0.3807  0.2315  0.6447
 6350TIP3    H145161   6.671   0.686   7.132  1.2165  0.8402  0.4017
 6350TIP3    H245162   6.766   0.614   7.038  0.1146 -0.5137  0.2867
 6351TIP3   OH245163   0.180   6.713   6.394  0.3977  0.4415 -0.3703
 6351TIP3    H145164   0.216   6.784   6.341  1.5201  0.5029  0.4391
 6351TIP3    H245165   0.217   6.633   6.356  0.7713  0.4465 -0.0229
 6352TIP3   OH245166   7.176   4.157   7.143  0.0416 -0.1426  0.3798
 6352TIP3    H145167   7.088   4.186   7.168 -0.0202  0.5999 -0.6205
 6352TIP3    H245168   7.206   4.223   7.080 -0.5960 -2.8345 -3.0460
 6353TIP3   OH245169   1.728   5.415   7.096 -0.3594 -0.7279 -0.5442
 6353TIP3    H145170   1.685   5.501   7.092  2.8057  1.0000 -0.2234
 6353TIP3    H245171   1.776   5.416   7.179 -0.5615 -3.0160 -0.3428
 6354TIP3   OH245172   1.147   6.896   1.772 -0.0129 -0.2168 -0.9816
 6354TIP3    H145173   1.076   6.938   1.819  0.6758  0.7179 -0.7522
 6354TIP3    H245174   1.227   6.928   1.814  0.5578 -1.4489 -1.0524
 6355TIP3   OH245175   2.857   3.824   5.367  0.2708  0.5479 -0.6432
 6355TIP3    H145176   2.952   3.814   5.359  0.4921 -0.0075  2.0283
 6355TIP3    H245177   2.846   3.912   5.403 -0.3011  0.8584 -1.5419
 6356TIP3   OH245178   7.571   2.554   7.743 -0.2305  0.4227  0.0984
 6356TIP3    H145179   7.638   2.595   7.798  0.1968  1.5208 -1.1924
 6356TIP3    H245180   7.492   2.605   7.760 -0.5966 -0.4447  1.1053
 6357TIP3   OH245181   7.154   2.999   2.508  0.0449 -0.3285 -0.2461
 6357TIP3    H145182   7.158   3.014   2.414 -1.7080  0.4175 -0.2355
 6357TIP3    H245183   7.214   2.926   2.523  0.6485 -0.2018 -1.8743
 6358TIP3   OH245184   4.048   0.436   5.135  0.3708  0.8226 -0.2147
 6358TIP3    H145185   3.956   0.434   5.162  0.6160  0.1495  0.6296
 6358TIP3    H245186   4.055   0.514   5.080 -0.8543  0.5112 -0.8625
 6359TIP3   OH245187   2.011   3.521   7.006 -0.0215 -0.1953 -0.2366
 6359TIP3    H145188   1.971   3.468   7.076 -1.0910  2.3133  1.1755
 6359TIP3    H245189   2.099   3.541   7.038 -0.0491 -0.0953 -0.2258
 6360TIP3   OH245190   7.035   4.852   1.861  0.3210 -0.4003  0.2990
 6360TIP3    H145191   6.995   4.817   1.940 -0.2293  1.9691  1.1416
 6360TIP3    H245192   7.127   4.863   1.883 -0.0669  1.5647  1.1957
 6361TIP3   OH245193   1.143   2.262   0.579 -0.3790 -0.2266 -0.3764
 6361TIP3    H145194   1.168   2.225   0.664 -1.0057  0.4870  0.1279
 6361TIP3    H245195   1.219   2.313   0.552 -1.0345  1.5066  0.9014
 6362TIP3   OH245196   6.291   5.245   7.103 -0.5226  0.2281  0.3617
 6362TIP3    H145197   6.272   5.316   7.164 -1.9494  1.0852 -0.9895
 6362TIP3    H245198   6.349   5.284   7.038 -1.5209  0.2940 -0.5340
 6363TIP3   OH245199   4.547   2.072   6.653 -0.9715 -0.3398 -0.4033
 6363TIP3    H145200   4.621   2.036   6.701 -0.1744 -0.8445 -1.9424
 6363TIP3    H245201   4.582   2.093   6.567 -2.5716 -0.4272 -1.1150
 6364TIP3   OH245202   2.829   0.633   0.374  0.3266  0.0065 -0.5082
 6364TIP3    H145203   2.754   0.576   0.393  0.4566  0.3507  1.2283
 6364TIP3    H245204   2.792   0.703   0.319 -0.4537 -0.2531 -0.3333
 6365TIP3   OH245205   2.932   5.673   1.946  0.2580 -0.2395 -0.4844
 6365TIP3    H145206   2.877   5.636   2.016 -1.1411 -0.2549 -1.5491
 6365TIP3    H245207   3.016   5.689   1.988 -0.4365 -0.5810  1.1189
 6366TIP3   OH245208   5.268   0.859   6.558 -0.1454  0.1438  0.3748
 6366TIP3    H145209   5.216   0.939   6.544  0.4188  0.5434  0.5098
 6366TIP3    H245210   5.359   0.889   6.553  0.0870 -0.6956 -0.7347
 6367TIP3   OH245211   7.036   1.146   7.289 -0.0915 -0.0702  0.6509
 6367TIP3    H145212   7.038   1.229   7.242  0.4138 -0.8317 -0.7435
 6367TIP3    H245213   7.128   1.128   7.311  0.4696 -2.0328 -2.4913
 6368TIP3   OH245214   1.124   6.766   5.902  0.1065  0.3336 -0.1723
 6368TIP3    H145215   1.185   6.826   5.945  0.1845  1.0227 -1.1898
 6368TIP3    H245216   1.171   6.683   5.896  1.0269  0.8946 -1.0701
 6369TIP3   OH245217   6.017   6.396   2.670 -0.4200  0.7226  0.1822
 6369TIP3    H145218   5.949   6.441   2.620 -0.9245 -0.4828 -0.2504
 6369TIP3    H245219   5.997   6.303   2.659  2.4386  0.1998 -1.6489
 6370TIP3   OH245220   1.981   5.407   7.843 -0.4048 -0.1651  0.0454
 6370TIP3    H145221   2.008   5.464   7.771  0.7332  0.7966  1.2003
 6370TIP3    H245222   2.036   5.329   7.832 -0.0575  0.0817  0.0294
 6371TIP3   OH245223   5.582   7.579   7.587  0.4060  0.1658  0.3847
 6371TIP3    H145224   5.647   7.520   7.550 -2.3655 -1.9239 -1.5300
 6371TIP3    H245225   5.600   7.579   7.681  3.1999 -0.1310 -0.0639
 6372TIP3   OH245226   0.175   7.245   7.716 -0.1346  0.5435 -0.1793
 6372TIP3    H145227   0.180   7.151   7.733 -0.1939  0.7724  1.1777
 6372TIP3    H245228   0.123   7.252   7.636 -0.7653 -0.5365  0.1196
 6373TIP3   OH245229   6.022   6.641   0.919 -0.3628 -0.8102 -0.1874
 6373TIP3    H145230   5.968   6.663   0.843  0.7695  1.6400 -0.3710
 6373TIP3    H245231   6.104   6.608   0.881 -0.2067 -0.6236 -0.0177
 6374TIP3   OH245232   0.799   4.740   1.369  0.1731 -0.0808  1.0580
 6374TIP3    H145233   0.704   4.732   1.377  0.0277  1.5759  1.3629
 6374TIP3    H245234   0.817   4.831   1.392  1.2997  1.0872 -3.4296
 6375TIP3   OH245235   0.957   1.013   6.515  0.1669 -0.2812  0.4701
 6375TIP3    H145236   0.870   1.009   6.475 -0.7777  0.5948  2.2925
 6375TIP3    H245237   0.985   0.922   6.520 -0.8805 -0.6352  0.2762
 6376TIP3   OH245238   0.369   0.347   0.216  0.4147 -0.1816  0.1728
 6376TIP3    H145239   0.307   0.274   0.217 -0.0889  0.1839 -1.8032
 6376TIP3    H245240   0.326   0.416   0.267 -0.3168 -0.3246 -0.2408
 6377TIP3   OH245241   7.279   1.886   1.339 -0.1399 -0.4223  0.3648
 6377TIP3    H145242   7.211   1.882   1.271  0.8171 -0.3029 -0.6167
 6377TIP3    H245243   7.314   1.974   1.334  1.1062 -0.9332 -0.1514
 6378TIP3   OH245244   2.695   1.821   6.726 -0.2337  0.1813 -0.2044
 6378TIP3    H145245   2.640   1.852   6.798 -0.8112 -0.2863 -0.4415
 6378TIP3    H245246   2.702   1.727   6.739 -0.4863  0.0634 -0.8471
 6379TIP3   OH245247   2.623   1.504   1.333  0.0344 -0.9628 -0.1826
 6379TIP3    H145248   2.715   1.506   1.361  0.3305  1.4351 -1.0382
 6379TIP3    H245249   2.573   1.505   1.415  0.8309 -0.1313  0.3188
 6380TIP3   OH245250   7.717   4.932   6.451  0.2543  0.1831 -0.5274
 6380TIP3    H145251   7.644   4.974   6.494 -1.2778 -2.5186 -0.2453
 6380TIP3    H245252   7.739   4.989   6.378 -0.8633  1.9815  0.4859
 6381TIP3   OH245253   6.092   0.115   0.297 -0.5027 -0.0780  0.1128
 6381TIP3    H145254   6.184   0.091   0.303 -0.1342  1.0787 -0.5974
 6381TIP3    H245255   6.074   0.122   0.203 -0.7686  1.6169  0.2602
 6382TIP3   OH245256   5.779   2.998   0.050  0.1523 -0.5571  0.5322
 6382TIP3    H145257   5.699   2.947   0.063  1.6294 -3.3336 -0.4995
 6382TIP3    H245258   5.819   3.003   0.136 -0.1727 -0.8691  0.7040
 6383TIP3   OH245259   5.027   2.979   6.189  0.2904  0.0464  0.2535
 6383TIP3    H145260   5.053   3.008   6.276 -0.1046  0.2675  0.2962
 6383TIP3    H245261   4.975   2.900   6.204  0.7003 -0.2461  0.1804
 6384TIP3   OH245262   7.706   0.862   1.771 -0.1858  0.2890 -0.0273
 6384TIP3    H145263   7.760   0.886   1.846 -0.8421 -0.2730  0.6350
 6384TIP3    H245264   7.737   0.775   1.745 -0.8934 -0.1247  0.4843
 6385TIP3   OH245265   0.330   1.571   1.753 -0.2063  0.3394  1.0905
 6385TIP3    H145266   0.270   1.644   1.770 -0.4488  0.2468  0.6417
 6385TIP3    H245267   0.414   1.613   1.736 -0.4457  0.5496  0.3667
 6386TIP3   OH245268   0.822   5.991   0.599  0.4257  0.4218  0.0568
 6386TIP3    H145269   0.913   5.998   0.627  0.8114  0.9986 -1.2714
 6386TIP3    H245270   0.779   6.069   0.635  0.4517  0.1473  0.6846
 6387TIP3   OH245271   4.896   4.818   2.274 -0.3657  0.3317 -0.1005
 6387TIP3    H145272   4.875   4.743   2.331 -0.4279  1.6217  1.6572
 6387TIP3    H245273   4.836   4.810   2.200 -0.2149 -1.4674 -0.0774
 6388TIP3   OH245274   6.444   0.486   7.039 -0.0056  0.5268  0.1942
 6388TIP3    H145275   6.531   0.523   7.054  0.1986  0.4761 -0.8452
 6388TIP3    H245276   6.429   0.430   7.116 -0.4654  2.9427  1.9981
 6389TIP3   OH245277   3.316   0.170   0.333  0.4516 -0.9571  0.9269
 6389TIP3    H145278   3.266   0.183   0.414  0.7590  4.1492  0.6078
 6389TIP3    H245279   3.281   0.089   0.297 -2.2043 -1.6266  4.4076
 6390TIP3   OH245280   7.553   3.340   0.516  0.0573 -0.0118 -0.6446
 6390TIP3    H145281   7.593   3.399   0.452 -1.6070  1.9659  0.0226
 6390TIP3    H245282   7.476   3.388   0.548 -0.6648 -2.0488  0.8857
 6391TIP3   OH245283   0.662   0.013   6.508  0.7205  0.1729  0.4117
 6391TIP3    H145284   0.571  -0.017   6.509  0.0992  1.8996  2.1601
 6391TIP3    H245285   0.713  -0.065   6.524 -0.3942 -0.8842 -0.8754
 6392TIP3   OH245286   3.052   3.313   5.892 -0.1271 -0.2546  0.6833
 6392TIP3    H145287   2.995   3.301   5.816 -0.4590 -0.5015  0.9626
 6392TIP3    H245288   3.121   3.247   5.882  1.2479  1.3144 -0.6679
 6393TIP3   OH245289   3.810   2.671   1.060 -0.5516 -0.1318  0.0170
 6393TIP3    H145290   3.820   2.576   1.063  0.0684 -0.0452  0.8568
 6393TIP3    H245291   3.740   2.690   1.123 -0.4582 -0.0059  0.0836
 6394TIP3   OH245292   4.201   4.440   0.382 -0.2003  0.4528 -0.1988
 6394TIP3    H145293   4.260   4.444   0.307 -0.3036 -1.2850 -0.4082
 6394TIP3    H245294   4.165   4.351   0.381 -0.8062  0.6276  1.4521
 6395TIP3   OH245295   5.949   7.545   6.247  0.3428 -0.2832  0.5881
 6395TIP3    H145296   5.889   7.507   6.183  0.9567 -1.1102  0.4917
 6395TIP3    H245297   6.036   7.530   6.210  0.6724 -0.2322  1.3355
 6396TIP3   OH245298   2.415   2.069   0.613  0.4684  0.0863 -0.3386
 6396TIP3    H145299   2.388   1.979   0.595  1.2512 -0.6124  1.6318
 6396TIP3    H245300   2.479   2.090   0.545  0.6034 -1.0080 -0.5695
 6397TIP3   OH245301   5.612   0.130   1.420 -0.3271  0.5254 -0.1742
 6397TIP3    H145302   5.523   0.103   1.398 -0.2175 -0.8875  0.9932
 6397TIP3    H245303   5.660   0.048   1.434  0.8572  1.2757  0.3668
 6398TIP3   OH245304   1.152   6.671   0.264  0.0427  0.5072  0.0888
 6398TIP3    H145305   1.127   6.579   0.265  3.0049 -0.4352 -1.1725
 6398TIP3    H245306   1.230   6.675   0.321  0.5682  2.0048 -0.6832
 6399TIP3   OH245307   1.028   6.016   2.028 -0.3526 -0.1037  0.3566
 6399TIP3    H145308   1.044   5.926   2.054 -0.0409 -0.4786 -1.0485
 6399TIP3    H245309   1.115   6.055   2.018 -0.4255 -0.1973 -0.8036
 6400TIP3   OH245310   2.415   6.489   0.018  0.3189  0.0407 -0.0268
 6400TIP3    H145311   2.403   6.484  -0.077 -0.6314 -0.5321  0.1105
 6400TIP3    H245312   2.504   6.522   0.029  1.2239 -1.8977 -1.1172
 6401TIP3   OH245313   5.124   6.461   2.315  0.5469  0.2776  0.5864
 6401TIP3    H145314   5.081   6.420   2.240  1.6621 -0.4794  0.3243
 6401TIP3    H245315   5.109   6.399   2.387 -0.1741  0.8035  0.8925
 6402TIP3   OH245316   4.705   4.760   1.978 -1.1362 -0.0464  0.2103
 6402TIP3    H145317   4.670   4.828   1.920 -1.1499 -0.7158 -0.5838
 6402TIP3    H245318   4.671   4.678   1.942  2.7421 -0.9918 -1.8881
 6403TIP3   OH245319   3.624   4.589   1.409  0.9556  0.0484 -0.2567
 6403TIP3    H145320   3.687   4.537   1.360  1.5131  0.4199  0.0532
 6403TIP3    H245321   3.599   4.533   1.482 -0.0782 -0.6104 -1.0901
 6404TIP3   OH245322   4.392   1.610   1.999  0.3102  0.1541  0.6509
 6404TIP3    H145323   4.393   1.546   1.928  0.8914 -1.2496  1.8773
 6404TIP3    H245324   4.306   1.652   1.992 -0.0394 -0.6810 -0.2581
 6405TIP3   OH245325   3.404   3.454   2.518  0.4361  0.0600 -0.5390
 6405TIP3    H145326   3.388   3.425   2.428  0.0570 -0.0797 -0.4281
 6405TIP3    H245327   3.354   3.535   2.526 -0.0750 -0.2754 -0.2513
 6406TIP3   OH245328   7.173   3.367   1.312 -0.7737  0.8160 -0.0999
 6406TIP3    H145329   7.138   3.404   1.232 -1.7983  0.8835  0.3642
 6406TIP3    H245330   7.096   3.333   1.358 -0.2580  1.1235  1.0239
 6407TIP3   OH245331   1.481   6.838   1.123 -0.0899 -0.1451 -0.5548
 6407TIP3    H145332   1.508   6.928   1.141  2.2626 -0.3627 -2.5160
 6407TIP3    H245333   1.558   6.785   1.145 -1.1700 -1.6269 -0.1784
 6408TIP3   OH245334   8.032   6.340   7.763 -0.3236  0.3137 -0.6459
 6408TIP3    H145335   8.052   6.427   7.729  3.1860 -0.3916 -0.7037
 6408TIP3    H245336   8.022   6.286   7.685  1.5753 -0.0839 -0.6502
 6409TIP3   OH245337   3.293   4.535   0.855 -0.0433 -0.0101  0.1551
 6409TIP3    H145338   3.291   4.497   0.942  1.6949 -2.0278 -0.6281
 6409TIP3    H245339   3.210   4.507   0.815  0.1696 -0.9875  0.3890
 6410TIP3   OH245340   2.410   2.178   1.360  0.2739  0.0710  0.3312
 6410TIP3    H145341   2.375   2.243   1.422 -0.8142  0.7316 -0.9233
 6410TIP3    H245342   2.334   2.150   1.310  1.1531 -0.3693 -0.7907
 6411TIP3   OH245343   5.495   3.329   0.277  0.4659 -0.2637  0.4458
 6411TIP3    H145344   5.590   3.335   0.265  0.4095  2.5164  0.5632
 6411TIP3    H245345   5.460   3.404   0.228 -1.2267  1.5744  4.0558
 6412TIP3   OH245346   4.388   3.945   0.415  0.5985  0.2195 -0.2371
 6412TIP3    H145347   4.476   3.967   0.385  1.5861 -0.4227  1.9423
 6412TIP3    H245348   4.372   3.858   0.380  0.8397  0.3272 -0.6216
 6413TIP3   OH245349   5.465   7.588   0.297  0.6582  0.0788 -0.5555
 6413TIP3    H145350   5.540   7.638   0.330  0.3361  0.0144  0.3151
 6413TIP3    H245351   5.408   7.652   0.256  0.5994  0.3268 -0.0989
 6414TIP3   OH245352   3.155   4.910   0.324  0.2068 -0.1598  0.0427
 6414TIP3    H145353   3.161   4.915   0.229 -0.5426 -1.7459 -0.1314
 6414TIP3    H245354   3.239   4.942   0.355  0.6203 -0.0029 -1.1699
 6415TIP3   OH245355   5.605   3.905   6.308  0.6619  0.0849  0.2176
 6415TIP3    H145356   5.620   3.961   6.384 -1.6068 -1.0543  1.6306
 6415TIP3    H245357   5.530   3.851   6.333  1.2747 -1.9507 -1.9789
 6416TIP3   OH245358   3.500   1.657   1.031  0.5094 -0.4474  0.0295
 6416TIP3    H145359   3.437   1.662   0.959 -0.7032 -0.7018  1.0303
 6416TIP3    H245360   3.541   1.743   1.033 -1.0584  0.3169  0.4236
 6417TIP3   OH245361   6.993   4.866   7.248 -0.5006  0.1499  0.6188
 6417TIP3    H145362   7.077   4.885   7.207 -1.0508 -2.1019 -1.8736
 6417TIP3    H245363   7.004   4.892   7.340  2.2920  1.4885  0.0087
 6418TIP3   OH245364   0.576   0.577   7.366 -0.1260  0.1404 -0.0749
 6418TIP3    H145365   0.480   0.581   7.368 -0.0885  0.8847  0.2786
 6418TIP3    H245366   0.602   0.652   7.312  0.2546 -0.1699 -0.3303
 6419TIP3   OH245367   0.280   1.813   0.810 -0.1907 -0.0795 -0.0227
 6419TIP3    H145368   0.241   1.871   0.874 -1.9400  0.9087 -1.8512
 6419TIP3    H245369   0.362   1.855   0.785 -0.5056  0.6070  0.0807
 6420TIP3   OH245370   4.255   6.172   5.775 -0.0597 -0.0635  0.2059
 6420TIP3    H145371   4.324   6.236   5.756  0.0679  0.4725  2.2519
 6420TIP3    H245372   4.286   6.091   5.735  0.6109  0.7242 -0.9297
 6421TIP3   OH245373   6.237   4.316   5.434  0.1212 -0.4681 -0.5050
 6421TIP3    H145374   6.214   4.386   5.372 -0.8613 -0.4774 -0.1758
 6421TIP3    H245375   6.170   4.323   5.502  1.1966 -0.4518  0.5680
 6422TIP3   OH245376   4.389   6.968   7.207 -0.1644  0.0832  0.4740
 6422TIP3    H145377   4.366   6.880   7.236 -0.1519 -0.2321 -0.4484
 6422TIP3    H245378   4.398   7.018   7.288  1.2766 -1.1105  1.1049
 6423TIP3   OH245379   6.194   1.894   0.927  0.2710 -0.3146 -0.0145
 6423TIP3    H145380   6.151   1.830   0.983 -0.4489 -1.2282 -1.5203
 6423TIP3    H245381   6.276   1.852   0.901  0.8737  0.3436  0.7994
 6424TIP3   OH245382   3.625   5.120   1.965 -0.7534 -0.7633 -0.5803
 6424TIP3    H145383   3.535   5.096   1.943 -0.8934 -0.6994 -0.0992
 6424TIP3    H245384   3.644   5.196   1.910 -1.6278  0.3472  0.5725
 6425TIP3   OH245385   5.999   1.738   1.594 -0.5709 -0.5233 -0.5732
 6425TIP3    H145386   5.929   1.673   1.599 -2.0636  1.0813  1.4666
 6425TIP3    H245387   6.030   1.746   1.685 -0.7260  1.8389 -0.6747
 6426TIP3   OH245388   1.035   5.113   6.906 -0.6572  0.0336  0.1512
 6426TIP3    H145389   1.128   5.123   6.886 -0.8660  1.4468 -0.1906
 6426TIP3    H245390   1.000   5.066   6.830 -0.3899  0.3373 -0.1669
 6427TIP3   OH245391   7.072   4.003   7.586 -0.2946 -0.0096 -0.3553
 6427TIP3    H145392   7.007   3.940   7.554  0.9556 -0.9888 -1.0495
 6427TIP3    H245393   7.111   3.960   7.663 -1.0860  0.9703  0.6189
 6428TIP3   OH245394   4.561   6.807   0.660 -0.1021  0.7978 -0.6345
 6428TIP3    H145395   4.470   6.779   0.662  0.2240 -0.3274 -0.6108
 6428TIP3    H245396   4.608   6.733   0.622  0.8396  1.2524 -0.3976
 6429TIP3   OH245397   6.283   7.367   5.673  0.2471 -0.0090 -0.2839
 6429TIP3    H145398   6.334   7.296   5.712 -0.5978 -2.0286 -2.6464
 6429TIP3    H245399   6.329   7.387   5.592 -0.5395  0.9472 -0.5084
 6430TIP3   OH245400   7.176   0.336   0.517  0.4593 -0.2659  0.4507
 6430TIP3    H145401   7.247   0.272   0.521  1.2921  0.6701  1.1132
 6430TIP3    H245402   7.218   0.421   0.531 -0.6522  0.4258 -0.1341
 6431TIP3   OH245403   5.450   1.625   0.164 -0.4581 -0.2542  0.2109
 6431TIP3    H145404   5.458   1.672   0.246 -1.6207 -0.8368  0.6791
 6431TIP3    H245405   5.396   1.549   0.184  0.5396 -1.2623 -0.7484
 6432TIP3   OH245406   6.897   5.936   1.763 -0.4496 -0.1411  0.4987
 6432TIP3    H145407   6.971   5.894   1.806 -2.1279 -3.4152  0.5391
 6432TIP3    H245408   6.871   6.006   1.823  0.8320 -0.8007  1.8949
 6433TIP3   OH245409   1.076   1.581   7.291 -0.4707  0.1079  0.5875
 6433TIP3    H145410   1.045   1.512   7.233 -0.0910 -0.4101  0.9851
 6433TIP3    H245411   1.036   1.661   7.258 -0.9984 -0.3200  0.1788
 6434TIP3   OH245412   6.033   0.972   1.825 -0.0287 -0.4450 -0.0946
 6434TIP3    H145413   6.088   0.894   1.828  0.4098 -0.2259 -1.5981
 6434TIP3    H245414   5.946   0.942   1.852  0.1979 -1.3861 -0.3959
 6435TIP3   OH245415   2.386   1.874   1.086 -0.4169 -0.0177  0.2874
 6435TIP3    H145416   2.303   1.882   1.132 -0.7714  0.9616 -0.5035
 6435TIP3    H245417   2.403   1.780   1.083 -3.1693 -0.5738 -2.4534
 6436TIP3   OH245418   4.324   4.536   6.719  0.8022  0.2739 -0.0173
 6436TIP3    H145419   4.272   4.569   6.646 -0.3793  0.1949  0.7550
 6436TIP3    H245420   4.299   4.591   6.793 -1.0254 -2.0439  1.2437
 6437TIP3   OH245421   2.925   4.318   2.002 -0.2222  0.4506 -0.0132
 6437TIP3    H145422   2.856   4.369   1.961 -0.3204 -0.7896 -1.4485
 6437TIP3    H245423   2.998   4.321   1.940  0.4843  0.4653  0.7880
 6438TIP3   OH245424   2.822   4.055   6.583  0.0178 -0.0313 -0.2252
 6438TIP3    H145425   2.786   4.142   6.604  0.5855 -0.2130  1.6981
 6438TIP3    H245426   2.864   4.027   6.664 -0.9570 -2.5184 -0.4966
 6439TIP3   OH245427   6.162   7.831   7.411 -0.4258  0.7848  0.8619
 6439TIP3    H145428   6.104   7.889   7.360 -0.3496  2.7071  2.8145
 6439TIP3    H245429   6.249   7.847   7.374 -0.6258  0.6976  0.3395
 6440TIP3   OH245430   4.216   7.053   1.479 -0.0766  0.3821  0.2823
 6440TIP3    H145431   4.200   7.075   1.571 -2.8987 -1.2038  0.3091
 6440TIP3    H245432   4.238   6.960   1.480 -2.0056 -0.1458 -0.6992
 6441TIP3   OH245433   4.476   5.870   1.919  0.4075  0.7161  0.2562
 6441TIP3    H145434   4.461   5.826   2.003 -0.0647  0.1555 -0.1119
 6441TIP3    H245435   4.556   5.831   1.885 -0.2858 -0.2305 -0.3039
 6442TIP3   OH245436   0.014   0.890   6.381  0.7472 -0.1479 -0.2132
 6442TIP3    H145437   0.023   0.822   6.314 -0.2211 -0.4026 -0.1006
 6442TIP3    H245438  -0.072   0.875   6.419  0.6836  0.9023  0.0882
 6443TIP3   OH245439   3.252   1.047   6.389  0.5451 -0.3749 -0.0009
 6443TIP3    H145440   3.171   1.048   6.439  0.9567  0.0496  0.6635
 6443TIP3    H245441   3.272   0.955   6.375  0.0147 -0.4779 -0.0640
 6444TIP3   OH245442   2.050   0.367   5.480  0.3311 -0.5917 -0.5371
 6444TIP3    H145443   2.058   0.314   5.401  0.0519 -0.7472 -0.4626
 6444TIP3    H245444   2.040   0.303   5.551  1.9827 -0.5112 -0.1907
 6445TIP3   OH245445   5.814   2.746   2.509  0.3971 -0.7728  0.0200
 6445TIP3    H145446   5.723   2.770   2.495 -0.0724 -1.0586  2.2038
 6445TIP3    H245447   5.810   2.659   2.548  1.6636 -1.1283 -0.5754
 6446TIP3   OH245448   3.049   6.919   6.622 -0.2609  0.0661 -0.0001
 6446TIP3    H145449   3.052   6.978   6.547  2.0300  0.1102  0.0531
 6446TIP3    H245450   3.053   6.976   6.698 -2.9608  0.0433  0.2484
 6447TIP3   OH245451   5.821   4.446   1.835 -0.2959 -0.4878  0.0905
 6447TIP3    H145452   5.877   4.453   1.913  1.6953 -0.5532 -1.2683
 6447TIP3    H245453   5.832   4.530   1.790 -2.4877  0.0746  0.5001
 6448TIP3   OH245454   1.561   1.869   6.608  0.5636 -0.3586  0.0732
 6448TIP3    H145455   1.570   1.942   6.546  1.5851 -0.0568  0.5680
 6448TIP3    H245456   1.468   1.868   6.629 -0.0475 -1.1566 -2.2891
 6449TIP3   OH245457   7.790   3.416   1.854  0.0693 -0.2411  0.1331
 6449TIP3    H145458   7.836   3.420   1.770 -0.6141 -1.4079 -0.3203
 6449TIP3    H245459   7.774   3.322   1.868 -1.7416  0.0903  0.5111
 6450TIP3   OH245460   2.508   5.446   7.755 -0.3751  0.1854  0.5052
 6450TIP3    H145461   2.453   5.489   7.821 -1.4792 -0.9925  0.4106
 6450TIP3    H245462   2.584   5.415   7.804  1.3602  3.6430  0.2692
 6451TIP3   OH245463   3.099   0.907   6.811 -0.0220 -0.0050  0.3217
 6451TIP3    H145464   3.120   0.835   6.870 -0.3661  0.3379  0.8757
 6451TIP3    H245465   3.004   0.917   6.818  0.0615  0.7409  0.5420
 6452TIP3   OH245466   2.576   5.431   7.494  0.7803 -0.7676 -0.0747
 6452TIP3    H145467   2.570   5.456   7.586 -1.5662  0.1086 -0.3885
 6452TIP3    H245468   2.529   5.501   7.447  0.6259 -1.9417 -1.7582
 6453TIP3   OH245469   2.217   4.220   1.095  0.2953 -0.3442 -0.3918
 6453TIP3    H145470   2.138   4.275   1.101 -0.5126 -1.4288 -0.8125
 6453TIP3    H245471   2.254   4.241   1.010 -0.5389 -1.1054 -0.9671
 6454TIP3   OH245472   6.073   1.643   6.831  0.3944 -0.0335 -0.1537
 6454TIP3    H145473   6.117   1.666   6.913 -0.0746 -2.3125  0.8356
 6454TIP3    H245474   6.130   1.578   6.790  0.0690  0.2486 -1.0886
 6455TIP3   OH245475   0.280   0.721   5.735 -0.1634  0.5413  0.0539
 6455TIP3    H145476   0.215   0.663   5.696 -0.0754 -0.1257  0.8746
 6455TIP3    H245477   0.350   0.726   5.669 -0.5666  0.4282 -0.3906
 6456TIP3   OH245478   5.830   3.939   0.650  0.2309 -0.0918  0.2806
 6456TIP3    H145479   5.918   3.907   0.670 -0.3968 -1.4832  0.9668
 6456TIP3    H245480   5.810   4.000   0.721 -0.1812 -1.4565  1.3767
 6457TIP3   OH245481   3.125   0.059   7.873  0.2398  0.3671 -0.1199
 6457TIP3    H145482   3.128   0.108   7.955 -0.7066 -1.1801  0.8826
 6457TIP3    H245483   3.108   0.126   7.806  2.1056  1.8090  0.7530
 6458TIP3   OH245484   6.463   6.484   0.396 -0.5577  0.0575  0.4543
 6458TIP3    H145485   6.457   6.560   0.454 -0.8587 -0.2748  0.8616
 6458TIP3    H245486   6.543   6.499   0.345 -1.0899  1.0887 -0.1103
 6459TIP3   OH245487   6.794   0.908   0.912 -0.3106 -0.5094 -0.0092
 6459TIP3    H145488   6.874   0.952   0.940 -0.4341  1.7221 -2.6604
 6459TIP3    H245489   6.724   0.955   0.956 -0.3007  0.0949 -0.6183
 6460TIP3   OH245490   6.766   1.312   5.806  0.3981  0.9626  0.2196
 6460TIP3    H145491   6.709   1.287   5.733  0.2693  0.7061  0.4092
 6460TIP3    H245492   6.758   1.240   5.869  1.6765  0.4434 -0.1757
 6461TIP3   OH245493   5.226   1.539   1.168 -0.1538 -0.1394  0.3706
 6461TIP3    H145494   5.207   1.494   1.086 -0.6110  2.3412 -1.0111
 6461TIP3    H245495   5.319   1.562   1.162 -0.2416  0.2421  0.4139
 6462TIP3   OH245496   2.965   3.482   1.236  0.0839  0.0815 -0.2343
 6462TIP3    H145497   2.872   3.492   1.257 -0.2654 -0.5441 -1.3888
 6462TIP3    H245498   2.978   3.388   1.231  1.3271  0.0648  2.0941
 6463TIP3   OH245499   3.191   7.407   7.547 -0.2987 -0.0545 -0.1573
 6463TIP3    H145500   3.101   7.395   7.519 -1.1691  1.3044  1.8927
 6463TIP3    H245501   3.187   7.471   7.617  2.4110  0.9961 -0.8308
 6464TIP3   OH245502   2.174   3.419   1.666 -0.0325 -0.0953 -0.1572
 6464TIP3    H145503   2.101   3.467   1.706 -0.6854 -0.9281 -0.3279
 6464TIP3    H245504   2.231   3.487   1.631 -1.9599  0.5782 -2.2378
 6465TIP3   OH245505   6.739   1.435   6.958  0.3370 -0.2591 -0.0012
 6465TIP3    H145506   6.756   1.529   6.961 -0.6997 -0.0121 -1.0894
 6465TIP3    H245507   6.680   1.424   6.884  0.6784 -1.8132 -0.0736
 6466TIP3   OH245508   4.391   6.397   6.856 -0.5163 -0.2530  0.6266
 6466TIP3    H145509   4.332   6.455   6.807 -1.1426  0.1600  1.8340
 6466TIP3    H245510   4.454   6.455   6.897 -0.0539 -0.5895  0.4085
 6467TIP3   OH245511   4.245   5.084   7.037  0.1515 -0.3349 -0.4993
 6467TIP3    H145512   4.210   5.147   7.100  0.1351  1.8416 -2.5416
 6467TIP3    H245513   4.194   5.100   6.958  1.2422 -1.8589 -1.5532
 6468TIP3   OH245514   2.571   3.670   7.730  0.3152 -0.0126  0.2778
 6468TIP3    H145515   2.502   3.646   7.668 -0.1562  0.6688  0.5214
 6468TIP3    H245516   2.627   3.592   7.736 -1.7632 -1.4977  1.8861
 6469TIP3   OH245517   6.221   1.928   1.288 -0.4849  0.1217  0.3262
 6469TIP3    H145518   6.261   1.907   1.372  1.1313  0.8826 -0.2190
 6469TIP3    H245519   6.219   2.024   1.285 -1.1538  0.1013 -0.2138
 6470TIP3   OH245520   6.312   5.242   7.704  0.1473 -0.2402  0.3531
 6470TIP3    H145521   6.386   5.288   7.745  0.2132 -0.3648  0.3750
 6470TIP3    H245522   6.309   5.158   7.749 -0.3979  0.0039  0.7858
 6471TIP3   OH245523   0.612   3.568   6.621 -0.3826 -0.1490 -0.4271
 6471TIP3    H145524   0.551   3.622   6.671  0.2569 -0.1291  0.3520
 6471TIP3    H245525   0.568   3.553   6.537 -2.0079 -1.1470  0.5479
 6472TIP3   OH245526   5.022   6.856   6.534 -0.2218  0.5522  0.4298
 6472TIP3    H145527   5.032   6.813   6.619 -3.2170  0.2394  0.7205
 6472TIP3    H245528   4.988   6.788   6.476 -0.5947  1.3826 -0.3521
 6473TIP3   OH245529   7.908   4.812   5.684 -0.1919 -0.1102 -0.1668
 6473TIP3    H145530   7.948   4.762   5.613 -0.7054 -1.0482  0.1792
 6473TIP3    H245531   7.882   4.746   5.748  2.0595  0.7999  1.8760
 6474TIP3   OH245532   6.347   1.205   6.382 -0.0140  0.2505  0.4346
 6474TIP3    H145533   6.322   1.268   6.314 -0.5213  0.0883  0.4613
 6474TIP3    H245534   6.266   1.157   6.400  0.4696 -0.7353  0.0646
 6475TIP3   OH245535   5.960   0.939   0.647  0.1674 -0.1234 -0.6159
 6475TIP3    H145536   5.921   0.916   0.562  0.3160 -1.0868 -0.4445
 6475TIP3    H245537   6.015   1.015   0.629 -1.3013  0.8748 -0.9830
 6476TIP3   OH245538   2.006   3.404   1.122 -0.0118 -0.1012 -0.1280
 6476TIP3    H145539   2.019   3.347   1.046  0.9980 -0.7522  0.4991
 6476TIP3    H245540   2.046   3.487   1.097  0.9777 -0.5360 -0.0722
 6477TIP3   OH245541   6.277   3.177   1.763  1.0404 -0.0434 -0.0307
 6477TIP3    H145542   6.256   3.100   1.710  1.2919 -0.7510  0.8647
 6477TIP3    H245543   6.358   3.153   1.808  0.7942  0.5091  0.7172
 6478TIP3   OH245544   5.728   7.524   0.013 -0.1829 -0.6756 -0.0216
 6478TIP3    H145545   5.644   7.496  -0.023  0.2870  0.8795 -2.6580
 6478TIP3    H245546   5.739   7.614  -0.020  1.7050 -0.1912  1.7446
 6479TIP3   OH245547   1.706   5.433   6.810 -0.4377 -0.6972  0.1504
 6479TIP3    H145548   1.706   5.433   6.905 -0.8825  1.0314  0.1773
 6479TIP3    H245549   1.742   5.518   6.786 -0.3763 -1.0896 -1.2310
 6480TIP3   OH245550   7.519   1.278   1.017 -0.1425  0.1141 -0.1779
 6480TIP3    H145551   7.598   1.330   1.003 -0.7896  1.1131 -0.2498
 6480TIP3    H245552   7.455   1.341   1.052 -1.4210 -0.2490 -1.7024
 6481TIP3   OH245553   1.195   1.863   7.329 -0.9182  0.0180  0.3840
 6481TIP3    H145554   1.171   1.939   7.383  1.3426  0.9413  0.2226
 6481TIP3    H245555   1.202   1.791   7.392 -0.9472  0.4683  0.9216
 6482TIP3   OH245556   6.076   4.417   0.880 -0.3010 -0.0302 -0.8413
 6482TIP3    H145557   5.982   4.430   0.887 -0.6348 -1.5413 -1.9930
 6482TIP3    H245558   6.106   4.489   0.825 -0.5360  1.2439  0.6487
 6483TIP3   OH245559   1.402   2.547   1.568  0.5836  0.2229  0.2109
 6483TIP3    H145560   1.335   2.591   1.620  0.7994 -0.0062  0.6784
 6483TIP3    H245561   1.465   2.616   1.546  0.9981  0.1196  1.0650
 6484TIP3   OH245562   6.882   7.064   0.835 -0.1115  0.3571  0.3637
 6484TIP3    H145563   6.798   7.051   0.791  0.1437  0.3333 -0.1205
 6484TIP3    H245564   6.947   7.036   0.771  0.4390  3.0029 -0.3499
 6485TIP3   OH245565   7.094   1.963   7.325  0.1814  0.2623 -0.1593
 6485TIP3    H145566   7.143   1.886   7.351  1.9215  1.2540 -0.3274
 6485TIP3    H245567   7.056   1.996   7.406 -2.0026 -1.6404 -0.3161
 6486TIP3   OH245568   0.582   4.652   2.239  0.4264 -0.6432 -0.1516
 6486TIP3    H145569   0.517   4.634   2.171  0.2528  0.0204 -0.1675
 6486TIP3    H245570   0.540   4.622   2.320  0.4863 -1.0954 -0.2848
 6487TIP3   OH245571   0.077   7.063   0.947 -0.0710 -0.1377 -0.3397
 6487TIP3    H145572   0.126   7.143   0.931  1.1860 -0.4279  1.7584
 6487TIP3    H245573   0.015   7.087   1.016 -1.1803 -0.4533 -1.1901
 6488TIP3   OH245574   2.036   6.888   6.661 -0.3702  0.2694  0.0144
 6488TIP3    H145575   2.020   6.906   6.754 -1.3193  0.2830 -0.1372
 6488TIP3    H245576   2.127   6.860   6.657  0.0612  1.5167  0.7603
 6489TIP3   OH245577   4.284   3.819   7.161  0.6331  0.3921  0.1622
 6489TIP3    H145578   4.343   3.769   7.217  1.4123 -0.3223 -1.2383
 6489TIP3    H245579   4.340   3.886   7.121 -0.0357  1.2815  0.6783
 6490TIP3   OH245580   5.553   5.161   7.406 -0.5355 -0.4139 -0.0053
 6490TIP3    H145581   5.490   5.174   7.477  1.9279 -0.5989  2.3870
 6490TIP3    H245582   5.608   5.089   7.435  1.3632  0.3219 -1.5158
 6491TIP3   OH245583   7.363   6.508   7.302  0.0110 -0.1205  0.6704
 6491TIP3    H145584   7.288   6.565   7.285  1.2125  1.1759 -0.5586
 6491TIP3    H245585   7.382   6.521   7.395 -2.0259 -1.4742  1.3462
 6492TIP3   OH245586   1.914   2.894   6.429  0.4351 -0.1421  0.0254
 6492TIP3    H145587   1.990   2.871   6.481  0.0238  0.4246  0.8992
 6492TIP3    H245588   1.843   2.905   6.492 -0.5864 -1.4653 -0.8480
 6493TIP3   OH245589   3.212   4.693   1.296 -0.1770  0.3427 -0.2249
 6493TIP3    H145590   3.187   4.641   1.372 -0.4004 -0.0972 -0.5936
 6493TIP3    H245591   3.293   4.737   1.322 -1.2498  1.7091  0.9471
 6494TIP3   OH245592   3.628   7.455   7.213 -0.3174 -0.6261  0.0423
 6494TIP3    H145593   3.675   7.498   7.142 -0.7523 -1.1414 -0.5633
 6494TIP3    H245594   3.557   7.515   7.235 -0.4115 -0.6409 -0.2189
 6495TIP3   OH245595   3.999   2.596   6.989 -0.2111 -0.3694 -0.0756
 6495TIP3    H145596   4.039   2.515   6.958 -0.2325 -1.4472  2.4918
 6495TIP3    H245597   3.930   2.614   6.925  1.6434 -0.7015 -2.3116
 6496TIP3   OH245598   2.183   3.696   1.349  0.5467 -0.4695  0.2073
 6496TIP3    H145599   2.202   3.727   1.260  0.0281 -0.5473  0.0677
 6496TIP3    H245600   2.262   3.647   1.374  1.1576  0.4909  0.2261
 6497TIP3   OH245601   2.462   4.872   1.103  0.4873  0.0232 -0.0881
 6497TIP3    H145602   2.503   4.822   1.033  0.1645  0.5435 -0.6590
 6497TIP3    H245603   2.430   4.806   1.164  0.5403 -0.4502 -0.5633
 6498TIP3   OH245604   4.948   2.674   6.500  0.3952  0.5489  0.2151
 6498TIP3    H145605   4.893   2.726   6.440 -0.0520 -1.1258 -0.8903
 6498TIP3    H245606   4.886   2.624   6.553  0.8151  1.3322  1.4914
 6499TIP3   OH245607   2.205   0.597   7.267 -0.2224 -0.3187  0.8059
 6499TIP3    H145608   2.233   0.506   7.278  3.6203  0.5866 -0.0758
 6499TIP3    H245609   2.181   0.603   7.174 -0.7978 -0.4892  0.9407
 6500TIP3   OH245610   8.102   3.487   5.598  0.3510  0.1811  0.1917
 6500TIP3    H145611   8.177   3.546   5.593  1.2884 -0.7979  1.7715
 6500TIP3    H245612   8.126   3.413   5.542  0.9871 -0.5138  1.3296
 6501TIP3   OH245613   5.036   1.272   6.931 -0.1609  0.0466 -0.1403
 6501TIP3    H145614   5.005   1.257   7.021  0.9840  0.6364  0.3658
 6501TIP3    H245615   4.997   1.356   6.906  0.5385  0.5144  0.2926
 6502TIP3   OH245616   6.520   1.085   0.337  0.2196 -0.6331  0.2196
 6502TIP3    H145617   6.499   0.991   0.345 -1.4994 -0.3750 -0.8431
 6502TIP3    H245618   6.518   1.102   0.243  0.7719  0.4412  0.3907
 6503TIP3   OH245619   5.777   4.551   2.101  0.4351 -0.0178  0.0762
 6503TIP3    H145620   5.799   4.631   2.149  0.1342  1.1589 -1.6257
 6503TIP3    H245621   5.690   4.527   2.132  0.4679  0.3956  0.5034
 6504TIP3   OH245622   0.476   0.243   6.589  0.1681  0.1180 -0.0134
 6504TIP3    H145623   0.438   0.166   6.631 -0.6992  0.2054 -0.6090
 6504TIP3    H245624   0.547   0.208   6.535  1.5919  0.0514  1.8098
 6505TIP3   OH245625   7.980   2.012   7.251  0.2383  0.0085 -0.0614
 6505TIP3    H145626   7.966   1.926   7.291  0.7851 -1.3991 -2.6968
 6505TIP3    H245627   7.913   2.019   7.183  1.5357  0.6964 -1.3328
 6506TIP3   OH245628   3.313   5.923   0.759  0.1804  0.0105  0.4081
 6506TIP3    H145629   3.273   5.867   0.825  1.2078 -1.9759 -0.5763
 6506TIP3    H245630   3.397   5.949   0.798  0.2308 -0.1125  0.3803
 6507TIP3   OH245631   7.520   7.790   6.189 -0.1800  0.1617 -0.2892
 6507TIP3    H145632   7.541   7.826   6.103 -1.1328 -0.7144 -0.9172
 6507TIP3    H245633   7.563   7.849   6.252  0.7234  0.6790 -1.3600
 6508TIP3   OH245634   7.045   3.669   1.373 -0.1376 -0.4004 -0.2885
 6508TIP3    H145635   7.067   3.598   1.434 -1.2653 -1.0267 -0.5827
 6508TIP3    H245636   6.983   3.630   1.312 -0.6060  0.7803 -0.6017
 6509TIP3   OH245637   3.071   2.505   6.716  0.0541  0.2911 -0.6935
 6509TIP3    H145638   3.008   2.438   6.743  1.1781 -0.0361  1.4147
 6509TIP3    H245639   3.154   2.457   6.708  0.9764  1.4193  1.2836
 6510TIP3   OH245640   6.837   2.397   6.538  0.1135 -0.3894 -0.0402
 6510TIP3    H145641   6.896   2.462   6.577 -0.8965  0.8410 -0.4888
 6510TIP3    H245642   6.878   2.313   6.558  0.0717  0.1846  3.0131
 6511TIP3   OH245643   5.031   1.288   1.549 -0.1802 -0.0404  0.7835
 6511TIP3    H145644   5.073   1.241   1.476  1.0238 -1.8640  2.5499
 6511TIP3    H245645   5.070   1.375   1.547  3.2263 -1.3773  1.7956
 6512TIP3   OH245646   5.672   3.251   1.740  0.3461 -0.2088  0.1963
 6512TIP3    H145647   5.742   3.186   1.742  0.8386  0.3365  1.0764
 6512TIP3    H245648   5.595   3.202   1.713  0.7176 -1.1498  0.8061
 6513TIP3   OH245649   3.191   5.003   7.672  0.2811 -0.4477 -0.2492
 6513TIP3    H145650   3.275   4.961   7.657 -0.5463 -2.7701  1.1528
 6513TIP3    H245651   3.194   5.033   7.763 -0.1314  0.1643 -0.4263
 6514TIP3   OH245652   3.609   0.686   2.002  0.3183  0.6458 -0.1186
 6514TIP3    H145653   3.525   0.707   2.042 -0.2480 -1.1434 -0.2687
 6514TIP3    H245654   3.621   0.593   2.019  0.3216 -0.1251 -3.5008
 6515TIP3   OH245655   4.847   0.078   1.380  0.1209 -0.4525 -0.3192
 6515TIP3    H145656   4.891   0.080   1.465 -0.8191 -2.3146  0.2573
 6515TIP3    H245657   4.776   0.140   1.388  1.7817  1.6224 -0.8184
 6516TIP3   OH245658   0.089   5.278   0.665 -0.6550  0.2251 -0.0869
 6516TIP3    H145659   0.137   5.234   0.594  1.2943  0.5057  0.9802
 6516TIP3    H245660   0.142   5.355   0.686 -2.6024  1.6426 -0.0903
 6517TIP3   OH245661   1.246   5.678   2.183  0.2810  0.4985  0.4406
 6517TIP3    H145662   1.338   5.702   2.179  0.0977  1.0310 -2.1195
 6517TIP3    H245663   1.237   5.605   2.123 -0.9513  0.3821  0.7340
 6518TIP3   OH245664   7.481   2.179   1.493 -0.5136 -0.4560 -0.0687
 6518TIP3    H145665   7.512   2.089   1.505 -0.9013 -0.8514 -1.7936
 6518TIP3    H245666   7.404   2.171   1.437 -0.6004  0.9583 -0.1974
 6519TIP3   OH245667   2.022   7.820   5.545  0.6716  0.6158  0.3410
 6519TIP3    H145668   2.066   7.896   5.581  1.0820  0.8531 -0.6224
 6519TIP3    H245669   2.087   7.780   5.487  0.3924 -0.3476  0.6733
 6520TIP3   OH245670   4.992   5.200   1.369  0.0558  0.1530  0.2783
 6520TIP3    H145671   5.065   5.231   1.315 -0.2857  1.8481  0.7397
 6520TIP3    H245672   4.944   5.141   1.311 -0.8020  2.5934 -1.6665
 6521TIP3   OH245673   0.741   5.528   0.678 -0.6593  0.2546 -0.1782
 6521TIP3    H145674   0.699   5.606   0.642 -0.7835 -0.4624 -1.6410
 6521TIP3    H245675   0.824   5.521   0.632 -1.0138 -0.9250 -0.6681
 6522TIP3   OH245676   4.630   7.215   2.041  0.6060  0.0530 -0.3189
 6522TIP3    H145677   4.629   7.304   2.076 -0.0172  0.0338 -0.2821
 6522TIP3    H245678   4.542   7.202   2.006  1.1506  0.0032 -1.7284
 6523TIP3   OH245679   0.219   0.789   7.241 -0.0877 -0.2312 -0.4583
 6523TIP3    H145680   0.218   0.812   7.148 -0.9996  0.3115 -0.3284
 6523TIP3    H245681   0.128   0.768   7.261  0.0236  0.0810  0.4194
 6524TIP3   OH245682   4.180   5.752   6.959 -0.2378 -0.0771 -0.0223
 6524TIP3    H145683   4.239   5.767   7.032  0.4810  0.6817 -0.7476
 6524TIP3    H245684   4.237   5.728   6.886 -0.8814 -0.0630 -0.5399
 6525TIP3   OH245685   7.958   6.142   0.193  0.3933 -0.9043  0.7721
 6525TIP3    H145686   7.929   6.168   0.280 -0.4603 -1.9053  0.8074
 6525TIP3    H245687   7.971   6.047   0.200  4.2586 -0.5389  0.9050
 6526TIP3   OH245688   0.291   0.588   0.348  1.1851 -0.2366  0.0129
 6526TIP3    H145689   0.315   0.669   0.302 -0.8397  0.0620 -0.6107
 6526TIP3    H245690   0.269   0.616   0.436 -0.3663  0.0710 -0.4430
 6527TIP3   OH245691   0.879   4.983   7.118 -0.3479 -0.2670 -0.6171
 6527TIP3    H145692   0.866   4.904   7.066  1.7849 -0.4611 -0.9615
 6527TIP3    H245693   0.937   5.038   7.064 -2.4931  2.0062 -0.8158
 6528TIP3   OH245694   0.373   7.368   0.028  0.0975  0.2906 -0.0155
 6528TIP3    H145695   0.365   7.294   0.089  1.3588  0.0599 -0.1124
 6528TIP3    H245696   0.315   7.345  -0.045 -0.7207  0.1452  0.6534
 6529TIP3   OH245697   5.364   5.102   1.156  0.6614  0.0060 -0.9905
 6529TIP3    H145698   5.362   5.095   1.252 -2.8129  0.3531 -0.9141
 6529TIP3    H245699   5.429   5.037   1.129  2.8201  0.8778  1.5789
 6530TIP3   OH245700   0.002   0.447   5.998 -0.3485  0.7007 -0.2170
 6530TIP3    H145701  -0.035   0.535   5.986 -2.7044 -0.3993 -1.8267
 6530TIP3    H245702   0.029   0.420   5.911  3.1093  0.8359  0.6876
 6531TIP3   OH245703   7.640   7.822   7.647  0.2088  0.2853  0.0725
 6531TIP3    H145704   7.683   7.906   7.632  0.6551  0.1372  0.5101
 6531TIP3    H245705   7.684   7.786   7.725  2.0968 -1.7156 -1.7899
 6532TIP3   OH245706   6.161   2.422   6.806  0.0845  0.5192 -0.9037
 6532TIP3    H145707   6.123   2.424   6.718 -1.1228  1.8409 -0.3878
 6532TIP3    H245708   6.155   2.513   6.837  0.6302  0.1070  0.4875
 6533TIP3   OH245709   2.224   2.295   0.223 -0.4138  0.7895 -0.4170
 6533TIP3    H145710   2.293   2.357   0.246  0.2372 -0.4342  1.0514
 6533TIP3    H245711   2.214   2.305   0.128  1.0298  1.7380 -0.4937
 6534TIP3   OH245712   6.875   7.727   6.357  0.0981 -0.0149  0.2740
 6534TIP3    H145713   6.819   7.801   6.377 -2.1944 -1.4043 -0.5861
 6534TIP3    H245714   6.927   7.756   6.282 -0.9425  0.6638 -0.2089
 6535TIP3   OH245715   5.260   0.585   2.678 -0.0707  0.1512 -0.3514
 6535TIP3    H145716   5.176   0.602   2.635  0.1568  0.9234 -0.5044
 6535TIP3    H245717   5.257   0.638   2.757 -0.5176 -1.3186  0.6745
 6536TIP3   OH245718   2.801   3.455   1.511 -0.0200 -0.0397 -0.2299
 6536TIP3    H145719   2.722   3.436   1.461 -0.7639  0.3983  0.7343
 6536TIP3    H245720   2.809   3.550   1.508 -0.1292  0.0067  0.5123
 6537TIP3   OH245721   6.646   2.470   6.120  0.5167 -0.0237  0.0784
 6537TIP3    H145722   6.650   2.504   6.209 -0.3139 -3.9063  1.8000
 6537TIP3    H245723   6.553   2.478   6.096  0.5787  0.1866 -0.0980
 6538TIP3   OH245724   3.357   7.182   7.545 -0.5181  0.1011 -0.2867
 6538TIP3    H145725   3.441   7.200   7.588 -0.6756  0.6969 -0.2103
 6538TIP3    H245726   3.316   7.268   7.537 -1.4707 -0.2693  0.4005
 6539TIP3   OH245727   2.288   2.233   6.404 -0.0616  0.4755  0.1889
 6539TIP3    H145728   2.224   2.303   6.415 -0.6419 -0.0855  0.4409
 6539TIP3    H245729   2.275   2.203   6.314  1.5919  2.0346 -0.6456
 6540TIP3   OH245730   8.027   5.450   6.343 -0.6417 -0.1829 -0.2708
 6540TIP3    H145731   8.052   5.515   6.408 -2.0408 -1.1650  1.3467
 6540TIP3    H245732   8.093   5.381   6.351 -2.4778 -1.8391  2.5742
 6541TIP3   OH245733   7.353   2.342   7.640 -0.3691 -0.0723 -0.1847
 6541TIP3    H145734   7.329   2.406   7.573 -0.0416 -0.7079 -0.9230
 6541TIP3    H245735   7.423   2.384   7.689 -0.0045  0.0645 -0.8069
 6542TIP3   OH245736   1.996   2.526   6.654  0.1428 -0.4868 -0.2119
 6542TIP3    H145737   2.019   2.561   6.740  1.3452  1.0723 -1.1068
 6542TIP3    H245738   1.990   2.431   6.667  0.8682 -0.3301  1.4655
 6543TIP3   OH245739   7.310   3.254   7.721 -0.0586 -0.2107 -0.0403
 6543TIP3    H145740   7.296   3.273   7.814  1.7837  2.8144 -0.2782
 6543TIP3    H245741   7.222   3.246   7.685 -0.8327  0.3895  1.6305
 6544TIP3   OH245742   1.256   4.551   5.489  0.0729 -0.2979 -0.5438
 6544TIP3    H145743   1.227   4.642   5.495 -0.3181 -0.4841  0.6707
 6544TIP3    H245744   1.352   4.557   5.487  0.0935  0.1078  0.7551
 6545TIP3   OH245745   2.888   1.989   6.861  0.4031 -0.0744  0.0821
 6545TIP3    H145746   2.959   2.020   6.805 -0.2364 -0.4088 -0.9231
 6545TIP3    H245747   2.831   1.939   6.803 -1.1481  0.9253  0.6700
 6546TIP3   OH245748   5.340   4.846   6.781 -0.3154 -0.1911  0.5108
 6546TIP3    H145749   5.312   4.937   6.789  0.1972  0.1489 -1.1357
 6546TIP3    H245750   5.291   4.800   6.849 -1.5067  1.1127  0.5823
 6547TIP3   OH245751   3.192   7.233   1.129  0.2439  0.0341  0.6098
 6547TIP3    H145752   3.247   7.288   1.073  0.3618  1.0972  1.7079
 6547TIP3    H245753   3.232   7.240   1.215 -0.5022 -0.7521  1.0379
 6548TIP3   OH245754   7.509   7.242   0.141 -0.0198  0.1057  0.1305
 6548TIP3    H145755   7.541   7.276   0.057 -0.2731  1.1845  0.4541
 6548TIP3    H245756   7.499   7.320   0.195 -1.9154 -0.3402  0.4699
 6549TIP3   OH245757   0.225   6.966   7.757  0.4808 -0.5648  0.0992
 6549TIP3    H145758   0.192   6.894   7.811 -0.8513 -0.1568 -0.1350
 6549TIP3    H245759   0.310   6.988   7.795  0.1165 -1.0972  1.2568
 6550TIP3   OH245760   3.627   3.738   0.055 -0.1036  0.4965  0.0314
 6550TIP3    H145761   3.646   3.647   0.080  0.3997  0.3329 -0.8854
 6550TIP3    H245762   3.564   3.768   0.120  0.9609  0.0280  1.3243
 6551TIP3   OH245763   3.529   4.744   1.680 -1.0801 -0.1879 -0.0503
 6551TIP3    H145764   3.499   4.662   1.721 -2.2607  0.0060 -0.4955
 6551TIP3    H245765   3.537   4.805   1.753 -2.0781 -0.1666  0.0645
 6552TIP3   OH245766   1.208   1.811   1.858 -0.2307  0.5015  0.4126
 6552TIP3    H145767   1.285   1.866   1.867 -0.8462  1.1537  2.0694
 6552TIP3    H245768   1.218   1.744   1.926 -0.1643 -0.6486 -0.6788
 6553TIP3   OH245769   6.153   6.241   7.110 -0.1733 -0.3795  0.0942
 6553TIP3    H145770   6.187   6.159   7.075 -1.4301 -0.8017 -0.1724
 6553TIP3    H245771   6.207   6.257   7.188 -0.5639 -1.9959  0.7427
 6554TIP3   OH245772   6.129   7.691   6.764  0.3808  0.0653 -0.0127
 6554TIP3    H145773   6.219   7.720   6.746  0.1380  0.6674 -0.2402
 6554TIP3    H245774   6.105   7.735   6.845  0.0397  0.4476 -0.3194
 6555TIP3   OH245775   0.512   2.950   2.558  0.0132  0.3278  0.0836
 6555TIP3    H145776   0.549   3.037   2.546 -0.6932  0.8595  1.5732
 6555TIP3    H245777   0.419   2.959   2.535  0.2393 -0.4096 -1.2236
 6556TIP3   OH245778   7.750   3.300   1.039 -0.8152  0.2965 -0.2075
 6556TIP3    H145779   7.711   3.290   1.125 -1.4042 -0.6477 -0.5697
 6556TIP3    H245780   7.686   3.262   0.979  0.2098 -0.3646 -0.9130
 6557TIP3   OH245781   2.732   5.223   7.314  0.3394 -0.4131  0.1247
 6557TIP3    H145782   2.773   5.137   7.303 -0.8210 -0.9679 -0.0626
 6557TIP3    H245783   2.708   5.226   7.407 -1.1047 -1.0136 -0.2016
 6558TIP3   OH245784   0.829   4.581   2.167  0.0645 -0.4043  0.2931
 6558TIP3    H145785   0.739   4.613   2.178  0.3426  0.6065 -0.2603
 6558TIP3    H245786   0.830   4.540   2.081  0.1551 -0.3230  0.2547
 6559TIP3   OH245787   5.752   5.174   7.690 -0.4665  0.3820 -0.2576
 6559TIP3    H145788   5.836   5.179   7.734  0.2805 -0.4931 -1.5235
 6559TIP3    H245789   5.726   5.082   7.697 -0.9411  0.4878 -0.5596
 6560TIP3   OH245790   6.277   6.176   6.655 -0.3397 -0.1555 -0.3580
 6560TIP3    H145791   6.189   6.198   6.684 -0.7377 -1.3751 -0.5479
 6560TIP3    H245792   6.318   6.132   6.730 -0.4601 -0.9925 -0.7657
 6561TIP3   OH245793   3.316   0.512   6.678 -0.3415  0.2601  0.3408
 6561TIP3    H145794   3.309   0.443   6.612  0.6105 -1.8730  2.3192
 6561TIP3    H245795   3.233   0.509   6.725 -0.0074 -0.1014  0.9212
 6562TIP3   OH245796   2.257   0.823   0.760  0.2761 -0.4074  0.2756
 6562TIP3    H145797   2.177   0.870   0.734  0.1805 -0.3958  0.5840
 6562TIP3    H245798   2.304   0.885   0.816  1.0471  0.0034 -0.7849
 6563TIP3   OH245799   4.150   3.648   1.128  0.0573  0.1311 -0.2198
 6563TIP3    H145800   4.102   3.622   1.207  0.0404  0.8343  0.0040
 6563TIP3    H245801   4.099   3.721   1.093  1.1650  1.1368  0.2243
 6564TIP3   OH245802   1.421   1.218   1.164  0.1285 -0.0951 -0.1821
 6564TIP3    H145803   1.483   1.263   1.107  0.5205 -0.3622  0.0271
 6564TIP3    H245804   1.457   1.230   1.252 -0.3907  0.1850 -0.0041
 6565TIP3   OH245805   3.924   5.452   1.912 -0.4492 -0.0799  0.2747
 6565TIP3    H145806   3.999   5.501   1.877 -1.1946 -0.3769 -1.9057
 6565TIP3    H245807   3.877   5.515   1.966  0.4386  0.6046  0.2691
 6566TIP3   OH245808   4.878   3.988   7.912 -0.0978  0.4900 -0.4038
 6566TIP3    H145809   4.949   4.022   7.858 -0.8338  1.0136 -1.0675
 6566TIP3    H245810   4.823   3.939   7.851  0.0226 -0.4452  0.2249
 6567TIP3   OH245811   2.036   5.543   7.584  0.4397 -0.7204 -0.2145
 6567TIP3    H145812   2.079   5.487   7.520  1.2291  0.1432 -0.4684
 6567TIP3    H245813   2.100   5.611   7.604 -0.8955  0.8234 -0.8642
 6568TIP3   OH245814   7.625   7.401   6.369 -0.3088 -0.0853  0.1200
 6568TIP3    H145815   7.588   7.421   6.283 -3.4762  1.8265  1.7421
 6568TIP3    H245816   7.660   7.485   6.400 -0.5194 -0.3856  1.2197
 6569TIP3   OH245817   3.978   1.837   5.869 -0.2204 -0.7538  0.2104
 6569TIP3    H145818   4.026   1.882   5.939 -1.6087  0.2283  0.5705
 6569TIP3    H245819   3.998   1.887   5.790 -1.5462  0.3994  0.5645
 6570TIP3   OH245820   4.736   0.934   1.175 -0.3461  0.9355  0.1648
 6570TIP3    H145821   4.708   0.906   1.088  0.6604 -0.4438  0.2697
 6570TIP3    H245822   4.654   0.942   1.224 -0.8198  0.3200 -0.5014
 6571TIP3   OH245823   0.791   5.657   6.930  0.0519  0.3514 -0.0436
 6571TIP3    H145824   0.780   5.567   6.898 -0.3484 -0.0271  1.1110
 6571TIP3    H245825   0.874   5.686   6.893 -0.7387  0.2452 -2.0864
 6572TIP3   OH245826   0.177   6.933   6.796  0.1882 -0.2168  0.1487
 6572TIP3    H145827   0.151   6.923   6.887  0.5325 -0.7368  0.1937
 6572TIP3    H245828   0.198   7.026   6.786  1.6880 -0.4445  1.0053
 6573TIP3   OH245829   3.892   6.653   1.370 -0.0573  0.8415 -0.5718
 6573TIP3    H145830   3.946   6.676   1.445  1.0379 -0.0103 -1.0870
 6573TIP3    H245831   3.916   6.717   1.303 -1.1024  1.6604 -0.2008
 6574TIP3   OH245832   5.739   2.997   2.088  0.3383  0.4099  0.4865
 6574TIP3    H145833   5.765   2.991   2.180 -1.0944 -1.1600  0.8334
 6574TIP3    H245834   5.650   3.032   2.091  1.3520  3.3610 -0.5289
 6575TIP3   OH245835   2.109   6.043   0.347  0.3605 -0.1866  0.7419
 6575TIP3    H145836   2.014   6.050   0.339  0.0647 -1.8861  2.0082
 6575TIP3    H245837   2.133   6.112   0.409 -0.0722  0.0879  0.6100
 6576TIP3   OH245838   4.208   2.738   0.278  0.6498 -0.0125 -0.6022
 6576TIP3    H145839   4.116   2.711   0.277  0.0880  1.5210 -3.9855
 6576TIP3    H245840   4.242   2.703   0.361 -2.7169 -1.3474  0.4018
 6577TIP3   OH245841   6.108   2.348   0.910  0.9165 -0.6117  0.2226
 6577TIP3    H145842   6.173   2.290   0.872  0.9468  0.1181 -0.8738
 6577TIP3    H245843   6.027   2.329   0.862  1.6087  2.3947 -2.4391
 6578TIP3   OH245844   2.926   3.729   6.240 -0.3235  0.5916 -0.3846
 6578TIP3    H145845   2.933   3.668   6.167 -0.6398 -0.9253  0.8099
 6578TIP3    H245846   3.011   3.723   6.284 -0.9496 -0.3091  0.7288
 6579TIP3   OH245847   4.617   2.921   6.218  0.1724  0.5743 -0.0258
 6579TIP3    H145848   4.653   2.920   6.129 -0.5521  0.2746 -0.3280
 6579TIP3    H245849   4.523   2.905   6.206  0.5375 -3.4454  0.9870
 6580TIP3   OH245850   7.937   3.338   2.204 -0.0228  0.0032  0.1367
 6580TIP3    H145851   7.868   3.323   2.269  0.2614 -0.0575  0.4261
 6580TIP3    H245852   7.944   3.256   2.156  1.0571 -0.5965  1.2661
 6581TIP3   OH245853   4.850   0.640   7.078  0.0964  0.3955 -0.3625
 6581TIP3    H145854   4.917   0.706   7.090 -0.2170  0.8764 -1.1735
 6581TIP3    H245855   4.868   0.574   7.145  0.4120  1.2952  0.4420
 6582TIP3   OH245856   5.728   0.499   2.256 -1.1512 -0.6272 -0.0377
 6582TIP3    H145857   5.709   0.410   2.224  0.9676 -0.6226 -1.5096
 6582TIP3    H245858   5.816   0.493   2.291  0.0055  1.3530 -2.3093
 6583TIP3   OH245859   7.127   4.248   5.853  0.0215  0.0426 -0.1943
 6583TIP3    H145860   7.138   4.159   5.821 -2.6828  0.5859 -3.0563
 6583TIP3    H245861   7.119   4.301   5.774  0.0688  2.6511  1.4345
 6584TIP3   OH245862   2.558   5.590   0.380 -0.1604  0.2140  0.2200
 6584TIP3    H145863   2.650   5.615   0.380  0.4790 -1.8899 -0.3313
 6584TIP3    H245864   2.511   5.670   0.401  1.5612  2.1609 -2.6641
 6585TIP3   OH245865   6.544   7.804   1.588  0.2488  0.4781 -0.7762
 6585TIP3    H145866   6.617   7.864   1.597 -2.6612  4.3170  0.0670
 6585TIP3    H245867   6.503   7.828   1.505 -1.0375 -0.3118 -0.4087
 6586TIP3   OH245868   0.007   1.248   0.562 -0.2297 -0.4715 -0.7760
 6586TIP3    H145869   0.006   1.250   0.657 -1.8074  0.6261 -0.7735
 6586TIP3    H245870   0.096   1.274   0.538 -0.3048  1.0216  0.4096
 6587TIP3   OH245871   6.118   0.555   7.448 -0.5252  0.4067 -0.3488
 6587TIP3    H145872   6.026   0.569   7.468 -0.6423 -1.5481  0.7854
 6587TIP3    H245873   6.158   0.533   7.532  0.6587 -0.1827 -1.0388
 6588TIP3   OH245874   0.112   5.788   6.609 -0.4480  0.1666 -0.2622
 6588TIP3    H145875   0.132   5.841   6.686  0.1972  0.8341 -0.8712
 6588TIP3    H245876   0.192   5.739   6.593 -0.8322 -0.5399 -0.0785
 6589TIP3   OH245877   0.697   7.994   1.414  0.1089 -0.3492 -0.1245
 6589TIP3    H145878   0.619   7.990   1.470 -0.2061  1.3559 -0.3928
 6589TIP3    H245879   0.770   7.989   1.476 -0.2255 -0.2108  0.2910
 6590TIP3   OH245880   5.887   4.548   7.773  0.0753  0.2481 -0.3849
 6590TIP3    H145881   5.820   4.490   7.810 -1.5782  0.9813 -2.0710
 6590TIP3    H245882   5.932   4.584   7.849 -1.2210 -0.5488  0.8101
 6591TIP3   OH245883   5.287   3.521   0.696  0.0647 -0.3870  0.1583
 6591TIP3    H145884   5.279   3.488   0.606  0.8360 -1.5890  0.5090
 6591TIP3    H245885   5.372   3.489   0.726  1.0703  2.2725  0.4279
 6592TIP3   OH245886   0.205   1.900   5.992 -0.3338 -0.2849 -0.2712
 6592TIP3    H145887   0.158   1.892   6.075 -0.2871 -0.5153 -0.2657
 6592TIP3    H245888   0.226   1.810   5.968 -2.3923 -0.4489 -1.7201
 6593TIP3   OH245889   1.780   2.270   0.003  0.3359  0.5891  0.2245
 6593TIP3    H145890   1.786   2.363   0.024 -0.5773  0.8267 -0.4657
 6593TIP3    H245891   1.761   2.267  -0.091 -2.5131 -0.1384  0.7051
 6594TIP3   OH245892   1.955   4.799   1.257 -0.3983  0.0163 -0.2653
 6594TIP3    H145893   2.035   4.845   1.282 -1.4173  1.5489  0.2840
 6594TIP3    H245894   1.954   4.805   1.161  0.3381 -0.3692 -0.3053
 6595TIP3   OH245895   3.618   0.871   1.614 -0.4177  0.4964 -0.5484
 6595TIP3    H145896   3.614   0.953   1.663  0.3173 -0.1225  0.5945
 6595TIP3    H245897   3.673   0.814   1.667 -0.4351 -0.5512 -1.6109
 6596TIP3   OH245898   8.048   6.122   7.367 -0.0114 -0.0401 -0.1886
 6596TIP3    H145899   8.007   6.041   7.334  1.7825 -0.5169 -1.4126
 6596TIP3    H245900   8.050   6.111   7.462  0.2674 -1.5069 -0.3381
 6597TIP3   OH245901   2.741   7.624   5.907  0.2486  0.3773  0.7973
 6597TIP3    H145902   2.823   7.617   5.859 -0.7372  0.0704 -0.9329
 6597TIP3    H245903   2.724   7.536   5.939 -0.6263 -0.2007 -1.0685
 6598TIP3   OH245904   4.023   6.429   0.242 -0.2858  0.2634 -0.3176
 6598TIP3    H145905   3.992   6.378   0.317 -0.0456  1.3755  0.5717
 6598TIP3    H245906   3.944   6.448   0.191 -0.8487  1.5446  0.9624
 6599TIP3   OH245907   3.275   0.993   0.109  0.2309  0.2163 -0.3271
 6599TIP3    H145908   3.358   1.027   0.141 -0.2600  0.0306  1.2385
 6599TIP3    H245909   3.252   1.050   0.035  1.6175  0.4003 -0.6443
 6600TIP3   OH245910   0.526   3.578   0.207 -0.0247  0.0881 -0.0338
 6600TIP3    H145911   0.546   3.588   0.301  1.4758 -0.3725 -0.2700
 6600TIP3    H245912   0.565   3.655   0.166  0.8517 -0.5514 -0.4512
 6601TIP3   OH245913   5.852   1.425   6.846 -0.0100 -0.4302  0.3429
 6601TIP3    H145914   5.846   1.505   6.794 -0.0364  0.2230  1.3180
 6601TIP3    H245915   5.863   1.355   6.782 -2.4558  0.0389 -0.7141
 6602TIP3   OH245916   7.419   2.427   2.443 -0.0992 -0.0467  1.2422
 6602TIP3    H145917   7.342   2.393   2.398 -0.8734  1.1253  1.6186
 6602TIP3    H245918   7.475   2.351   2.456 -0.4244 -0.6441 -0.5475
 6603TIP3   OH245919   6.983   3.780   6.352 -0.1437  0.2438  0.0721
 6603TIP3    H145920   6.958   3.872   6.339  2.6239  0.9967 -0.7776
 6603TIP3    H245921   7.063   3.770   6.301  0.1869 -2.3975  0.9594
 6604TIP3   OH245922   6.603   1.848   0.039 -0.0581  0.4247  0.3857
 6604TIP3    H145923   6.678   1.843  -0.020 -1.6054 -0.4259 -1.6108
 6604TIP3    H245924   6.581   1.941   0.042  0.0961  0.4864 -0.3142
 6605TIP3   OH245925   2.932   3.467   6.416  0.2083 -0.5462  0.1919
 6605TIP3    H145926   2.886   3.462   6.500 -0.1046 -0.7974  0.0084
 6605TIP3    H245927   2.959   3.558   6.409 -1.9519  0.0934 -0.5758
 6606TIP3   OH245928   3.164   0.301   7.731  0.0382  0.7291 -0.0029
 6606TIP3    H145929   3.241   0.356   7.743 -0.5652  1.8011 -0.7883
 6606TIP3    H245930   3.158   0.289   7.636 -0.6155  0.4599  0.0662
 6607TIP3   OH245931   0.162   4.830   7.303 -0.5194 -0.8802  0.1921
 6607TIP3    H145932   0.170   4.900   7.367  0.0619  1.2996 -2.1162
 6607TIP3    H245933   0.133   4.873   7.222 -0.6595 -3.3800 -1.2279
 6608TIP3   OH245934   5.797   5.840   7.326  0.1911 -0.1439  0.0687
 6608TIP3    H145935   5.853   5.764   7.341  0.9548  1.0958  5.9417
 6608TIP3    H245936   5.858   5.910   7.303  0.1791 -0.2002 -0.1368
 6609TIP3   OH245937   1.225   2.639   1.765 -0.2316 -0.2901 -0.2118
 6609TIP3    H145938   1.184   2.720   1.798  0.8171  0.4965 -0.7664
 6609TIP3    H245939   1.231   2.583   1.842 -2.4766 -0.5218 -0.1392
 6610TIP3   OH245940   3.429   5.356   0.487 -0.6448  0.3652 -0.0399
 6610TIP3    H145941   3.482   5.397   0.418  0.6184 -0.9023  0.1317
 6610TIP3    H245942   3.492   5.335   0.556 -1.9084  1.7527  1.6375
 6611TIP3   OH245943   3.163   3.254   7.516 -0.3870 -0.1455  0.1953
 6611TIP3    H145944   3.237   3.193   7.511  1.4505  2.0147 -0.4663
 6611TIP3    H245945   3.138   3.269   7.425 -0.2607  0.7020  0.2895
 6612TIP3   OH245946   0.824   7.642   2.288  0.1762  0.3187  0.4004
 6612TIP3    H145947   0.895   7.706   2.289  0.7432 -0.2973  0.9492
 6612TIP3    H245948   0.770   7.664   2.364 -0.6037  1.1823 -0.3773
 6613TIP3   OH245949   3.190   5.049   1.287 -0.3562 -0.1808 -0.4949
 6613TIP3    H145950   3.268   4.994   1.281 -0.4183 -0.3091 -0.1647
 6613TIP3    H245951   3.204   5.118   1.223  0.2872  0.1114 -0.0505
 6614TIP3   OH245952   4.519   6.273   0.200  0.4775  0.3437 -0.0033
 6614TIP3    H145953   4.433   6.301   0.167  0.1568  2.5292  2.3737
 6614TIP3    H245954   4.578   6.283   0.126 -1.1935 -0.8424 -1.5840
 6615TIP3   OH245955   1.351   7.550   7.921 -0.0017  0.3338 -0.2080
 6615TIP3    H145956   1.352   7.593   7.835  1.0941  2.2075  0.6790
 6615TIP3    H245957   1.443   7.528   7.938 -0.2747 -0.4657  0.2902
 6616TIP3   OH245958   0.782   6.954   1.515 -0.4497  0.6828 -0.0421
 6616TIP3    H145959   0.797   6.950   1.610  0.1861  1.0028 -0.1241
 6616TIP3    H245960   0.867   6.937   1.476 -0.9423 -0.6214 -0.5877
 6617TIP3   OH245961   1.562   3.860   6.152 -0.1099  0.0333 -0.1887
 6617TIP3    H145962   1.634   3.888   6.209 -0.2499 -1.0619  0.5551
 6617TIP3    H245963   1.602   3.850   6.066  0.0262  2.0903 -0.4138
 6618TIP3   OH245964   2.089   7.943   6.776  0.1733 -0.0460 -0.4351
 6618TIP3    H145965   2.121   7.855   6.756  0.0016 -0.8395  2.3975
 6618TIP3    H245966   1.996   7.941   6.753 -0.1709 -1.1078  0.9626
 6619TIP3   OH245967   5.204   4.065   1.812 -0.0232  0.6696  0.4543
 6619TIP3    H145968   5.172   4.037   1.726 -0.6939 -0.0257  0.9249
 6619TIP3    H245969   5.129   4.056   1.870  0.9218 -0.7262  1.5242
 6620TIP3   OH245970   1.294   6.269   7.743 -0.4072 -0.0955  0.3879
 6620TIP3    H145971   1.251   6.184   7.733 -1.4498  0.4650 -0.0735
 6620TIP3    H245972   1.279   6.314   7.660  0.5699  0.3556  0.4424
 6621TIP3   OH245973   2.445   4.852   0.456  0.2999 -0.2347  0.1668
 6621TIP3    H145974   2.469   4.911   0.528  0.8539  0.7039 -0.7525
 6621TIP3    H245975   2.359   4.884   0.427  0.2597 -0.3567  0.1527
 6622TIP3   OH245976   3.245   3.398   6.839  0.5960  0.1581  0.2070
 6622TIP3    H145977   3.258   3.477   6.892  2.8737  0.2375 -0.3783
 6622TIP3    H245978   3.262   3.326   6.900 -0.9306  0.0824  0.5949
 6623TIP3   OH245979   2.970   3.327   6.817 -0.4366  0.4723  0.5024
 6623TIP3    H145980   2.940   3.322   6.908  1.1598 -2.6510  0.9555
 6623TIP3    H245981   3.060   3.359   6.823  0.2393 -1.2885  0.2262
 6624TIP3   OH245982   7.914   0.069   6.530 -0.2278 -0.3506 -0.1121
 6624TIP3    H145983   7.879   0.119   6.603  0.6564 -1.3662  1.0489
 6624TIP3    H245984   7.979   0.127   6.490  0.5806 -0.4289  1.0350
 6625TIP3   OH245985   3.803   1.227   7.852 -0.0653  0.0237 -0.5093
 6625TIP3    H145986   3.739   1.279   7.803 -3.1000 -1.8536  1.1181
 6625TIP3    H245987   3.812   1.146   7.802 -0.9009 -0.6970  0.4588
 6626TIP3   OH245988   7.510   0.390   6.977 -0.2219 -0.3517 -0.2839
 6626TIP3    H145989   7.492   0.422   6.888  1.1226 -0.0318 -0.4564
 6626TIP3    H245990   7.556   0.307   6.963  0.4762 -0.0365  0.0977
 6627TIP3   OH245991   4.428   4.369   5.619 -0.8020  0.1987  0.3007
 6627TIP3    H145992   4.516   4.337   5.601  0.0696  1.9107  1.3367
 6627TIP3    H245993   4.385   4.370   5.533  0.2440 -0.4346 -0.2465
 6628TIP3   OH245994   3.594   1.094   0.144 -0.1006 -0.5910 -0.2978
 6628TIP3    H145995   3.623   1.182   0.168 -2.2646 -0.2981  1.5809
 6628TIP3    H245996   3.625   1.039   0.215  0.4862 -1.2135 -1.0249
 6629TIP3   OH245997   7.952   6.420   7.480  0.1977  0.5501  0.3095
 6629TIP3    H145998   7.942   6.341   7.428  0.2434  0.7009  0.0690
 6629TIP3    H245999   7.913   6.489   7.426 -2.1459  0.3072  1.5759
 6630TIP3   OH246000   6.993   2.212   5.629 -0.3023 -0.2055  0.1975
 6630TIP3    H146001   7.085   2.188   5.629  0.1072  1.1702 -1.1101
 6630TIP3    H246002   6.946   2.129   5.626  0.8944 -0.9140  0.4879
 6631TIP3   OH246003   7.357   2.693   0.165  0.1160 -0.0157 -0.6380
 6631TIP3    H146004   7.349   2.764   0.228 -2.5558  0.2118 -1.1243
 6631TIP3    H246005   7.313   2.619   0.206  0.5877 -0.6335 -1.2101
 6632TIP3   OH246006   1.476   1.124   0.337 -0.5089  0.1110  0.5581
 6632TIP3    H146007   1.563   1.083   0.334 -0.3239  0.2809  2.2938
 6632TIP3    H246008   1.418   1.054   0.369 -0.4377  0.7737  2.2343
 6633TIP3   OH246009   3.797   6.775   0.259  0.3794  0.1910  0.3156
 6633TIP3    H146010   3.865   6.751   0.197  0.9634 -0.5450  1.2098
 6633TIP3    H246011   3.842   6.824   0.328 -0.3357  1.4145 -0.0543
 6634TIP3   OH246012   7.490   3.662   1.204 -0.0598 -0.4824  0.0712
 6634TIP3    H146013   7.452   3.584   1.165 -1.2253  1.1638 -2.3401
 6634TIP3    H246014   7.430   3.685   1.275 -0.3313 -1.1338  0.0545
 6635TIP3   OH246015   6.057   4.958   2.122 -0.6595 -0.0616 -0.5134
 6635TIP3    H146016   6.064   5.037   2.068  2.4085  0.4896  0.5200
 6635TIP3    H246017   6.099   4.890   2.070  2.2553  0.4563  0.9332
 6636TIP3   OH246018   0.575   4.593   6.472 -0.1552  0.4895  0.0869
 6636TIP3    H146019   0.553   4.652   6.399  0.0985  0.8460  0.2930
 6636TIP3    H246020   0.515   4.519   6.463 -1.1715  1.2573  0.4132
 6637TIP3   OH246021   0.022   0.341   0.682  0.1972 -0.8849  0.1988
 6637TIP3    H146022  -0.017   0.254   0.691 -0.4311 -0.4492  2.0617
 6637TIP3    H246023   0.108   0.333   0.723 -0.3187 -0.3639  1.4230
 6638TIP3   OH246024   1.396   3.671   0.193  0.2147 -0.1848 -0.3700
 6638TIP3    H146025   1.460   3.712   0.252  0.6011  0.6049 -1.3023
 6638TIP3    H246026   1.347   3.611   0.249 -0.6600  1.8512  1.1733
 6639TIP3   OH246027   5.015   6.282   6.853  0.1433  0.0097  0.4146
 6639TIP3    H146028   5.087   6.338   6.881 -1.0240  2.6513 -1.3775
 6639TIP3    H246029   4.940   6.314   6.903 -0.4737 -0.1657 -0.3738
 6640TIP3   OH246030   5.869   5.784   6.098 -0.2297 -0.0137 -0.2457
 6640TIP3    H146031   5.850   5.737   6.017 -0.4941  0.2872 -0.3572
 6640TIP3    H246032   5.892   5.715   6.160  0.7547 -0.1923 -0.7866
 6641TIP3   OH246033   2.047   6.629   7.193 -0.1652  0.5041 -0.1804
 6641TIP3    H146034   2.019   6.661   7.107 -0.7237  0.4187 -0.0369
 6641TIP3    H246035   2.127   6.579   7.176  0.1226  1.0871 -0.5490
 6642TIP3   OH246036   6.742   6.893   0.288 -0.8532  0.0286 -0.0925
 6642TIP3    H146037   6.805   6.964   0.298 -1.0276  0.5185 -2.0463
 6642TIP3    H246038   6.658   6.931   0.315 -0.8754  0.4707 -0.7503
 6643TIP3   OH246039   6.958   3.872   7.198  0.1699  0.4483 -0.1594
 6643TIP3    H146040   6.872   3.913   7.194  0.2378  0.6232  0.1589
 6643TIP3    H246041   6.992   3.878   7.108  0.6858  2.2094  0.1154
 6644TIP3   OH246042   1.513   7.931   1.094 -0.3739  0.2493  0.2414
 6644TIP3    H146043   1.453   7.873   1.140 -0.3698 -0.1943 -0.3043
 6644TIP3    H246044   1.481   7.933   1.004  0.3267  0.1476 -0.0202
 6645TIP3   OH246045   6.487   6.661   0.885 -0.2687 -0.2921 -0.1392
 6645TIP3    H146046   6.444   6.728   0.938 -0.8554 -0.7423 -0.0305
 6645TIP3    H246047   6.428   6.647   0.811 -0.2307 -0.7978 -0.0770
 6646TIP3   OH246048   4.803   4.275   1.346  0.1237  0.2926 -0.1187
 6646TIP3    H146049   4.879   4.314   1.389  0.4087 -0.1757 -0.1902
 6646TIP3    H246050   4.792   4.190   1.389  0.6398 -0.3413 -1.2167
 6647TIP3   OH246051   3.031   7.963   7.034  0.2181 -0.2119  0.0958
 6647TIP3    H146052   3.048   7.938   6.943 -1.0169 -1.5830  0.1942
 6647TIP3    H246053   3.012   7.880   7.077 -1.5367  0.6422  1.0689
 6648TIP3   OH246054   4.671   0.080   5.662 -0.1175 -0.3204 -0.2464
 6648TIP3    H146055   4.728   0.052   5.734 -0.9943  0.4441  0.7946
 6648TIP3    H246056   4.617   0.003   5.642 -2.0089  0.2574  2.0867
 6649TIP3   OH246057   6.253   5.605   1.984 -0.4571 -0.4366  0.3530
 6649TIP3    H146058   6.190   5.534   1.983  0.6250 -1.5004 -2.3537
 6649TIP3    H246059   6.338   5.562   1.970  0.5053  1.1940  0.9069
 6650TIP3   OH246060   1.297   1.952   6.663  0.5198  0.6731 -0.2016
 6650TIP3    H146061   1.305   1.884   6.730 -2.3646  0.7352  0.3121
 6650TIP3    H246062   1.276   1.904   6.583 -1.4418  0.8622  0.1455
 6651TIP3   OH246063   4.982   5.141   0.556 -0.5026  0.0103 -0.6132
 6651TIP3    H146064   5.013   5.073   0.616  0.2977  0.0864 -0.9219
 6651TIP3    H246065   4.998   5.104   0.469 -0.6096  0.3583 -0.7801
 6652TIP3   OH246066   0.817   6.321   7.360  0.2793 -0.5448  0.2120
 6652TIP3    H146067   0.863   6.398   7.395 -1.4230  0.5461  0.1616
 6652TIP3    H246068   0.819   6.333   7.265  0.4442 -0.8502  0.1744
 6653TIP3   OH246069   7.406   3.549   1.507 -0.6624  0.5572 -0.4311
 6653TIP3    H146070   7.312   3.569   1.504 -1.0592 -1.2722 -2.8197
 6653TIP3    H246071   7.414   3.479   1.572 -0.9489  0.6484 -0.2967
 6654TIP3   OH246072   5.601   2.019   6.184  0.0220  0.2155  0.0555
 6654TIP3    H146073   5.548   1.940   6.169  0.4448 -0.4308  1.7600
 6654TIP3    H246074   5.545   2.091   6.155  0.4358 -0.7572 -3.6401
 6655TIP3   OH246075   2.755   7.388   7.193 -0.1793 -0.7696  0.0558
 6655TIP3    H146076   2.721   7.419   7.278 -2.1880 -2.0105 -0.2346
 6655TIP3    H246077   2.798   7.305   7.213  2.0846  0.3921  0.2829
 6656TIP3   OH246078   4.484   0.941   0.673  0.0291  0.2535 -0.3284
 6656TIP3    H146079   4.560   0.999   0.668  0.2229 -0.0880 -1.8353
 6656TIP3    H246080   4.491   0.886   0.596 -1.1922 -0.4950  0.0719
 6657TIP3   OH246081   5.783   4.033   5.916  0.0848  0.3631  0.3971
 6657TIP3    H146082   5.817   3.953   5.956  0.3368  0.8284  1.1275
 6657TIP3    H246083   5.719   4.065   5.979  1.5873  1.9344  1.2105
 6658TIP3   OH246084   2.483   0.519   6.137 -0.5891 -0.5389  0.5720
 6658TIP3    H146085   2.548   0.543   6.070  0.0872  0.8962  1.6868
 6658TIP3    H246086   2.499   0.426   6.153 -0.4625 -0.8062 -0.9051
 6659TIP3   OH246087   3.236   0.633   6.048  0.8746  0.1736  0.0535
 6659TIP3    H146088   3.249   0.590   6.132 -0.8825 -1.0125 -0.2345
 6659TIP3    H246089   3.145   0.662   6.049  1.1862  1.2851 -0.9504
 6660TIP3   OH246090   4.809   5.398   7.463 -0.1032  0.3760 -0.5130
 6660TIP3    H146091   4.851   5.370   7.544 -2.1017 -0.0807  0.4339
 6660TIP3    H246092   4.716   5.386   7.479 -0.6405  1.5624 -2.4182
 6661TIP3   OH246093   2.240   1.579   6.808 -0.0073  0.6316 -0.5027
 6661TIP3    H146094   2.146   1.575   6.824 -0.1133 -1.5699 -1.3914
 6661TIP3    H246095   2.279   1.539   6.885  0.0533 -0.4433 -1.0733
 6662TIP3   OH246096   6.566   5.797   7.685  0.0201 -0.4168  0.8733
 6662TIP3    H146097   6.630   5.764   7.747 -1.7377 -1.4318  2.2503
 6662TIP3    H246098   6.531   5.876   7.727  0.6822  0.4147 -0.0930
 6663TIP3   OH246099   7.188   2.551   7.523 -0.3908  0.2774  0.1253
 6663TIP3    H146100   7.224   2.639   7.517  2.2134 -0.8032 -2.1885
 6663TIP3    H246101   7.100   2.558   7.486 -1.1326  2.2335  2.0591
 6664TIP3   OH246102   3.941   5.361   0.806 -0.0713 -0.2046 -0.2815
 6664TIP3    H146103   3.904   5.419   0.739 -0.5620 -1.0794 -0.7979
 6664TIP3    H246104   4.035   5.362   0.790  0.1206  1.7188  0.7716
 6665TIP3   OH246105   6.479   7.668   2.400  0.3734 -0.5560  0.3746
 6665TIP3    H146106   6.536   7.598   2.434 -0.5517 -1.1907  0.6553
 6665TIP3    H246107   6.406   7.622   2.359  0.9170  0.2138 -1.5700
 6666TIP3   OH246108   2.163   2.084   5.877 -0.4169  0.1652 -0.5487
 6666TIP3    H146109   2.073   2.055   5.894 -0.1764 -0.1610  0.1841
 6666TIP3    H246110   2.152   2.172   5.839 -1.0957 -0.3989 -1.7366
 6667TIP3   OH246111   0.285   5.465   5.942 -0.1654 -0.1460 -0.0595
 6667TIP3    H146112   0.195   5.434   5.945 -0.9348  1.8646 -0.6165
 6667TIP3    H246113   0.293   5.522   6.019  0.3817  0.3257 -0.4622
 6668TIP3   OH246114   4.534   3.309   1.575 -0.3505  0.3050 -0.1223
 6668TIP3    H146115   4.551   3.233   1.630 -0.5256 -0.2906 -0.8623
 6668TIP3    H246116   4.441   3.303   1.553 -0.5549  1.1873  0.4675
 6669TIP3   OH246117   6.309   4.289   7.125 -0.2137  0.0850  0.3835
 6669TIP3    H146118   6.270   4.249   7.047  0.6116 -0.7892  0.4084
 6669TIP3    H246119   6.234   4.328   7.170 -0.8524 -0.2620 -0.3353
 6670TIP3   OH246120   2.584   2.997   1.828 -0.5558  0.1903  0.1383
 6670TIP3    H146121   2.545   2.913   1.853  0.7824 -0.5528 -0.1990
 6670TIP3    H246122   2.632   3.025   1.906  1.2462 -0.7196 -0.6028
 6671TIP3   OH246123   1.609   4.765   0.719  0.3569 -0.4771 -0.1184
 6671TIP3    H146124   1.624   4.839   0.660  0.6237  0.6382  1.3095
 6671TIP3    H246125   1.519   4.776   0.748  0.0740 -1.2928 -0.6471
 6672TIP3   OH246126   3.277   4.883   6.086  0.6250 -0.0706 -0.1976
 6672TIP3    H146127   3.241   4.896   5.998  0.4522  0.6935 -0.0164
 6672TIP3    H246128   3.204   4.900   6.145  0.6150 -1.0574  0.0825
 6673TIP3   OH246129   0.719   3.199   6.872 -0.0224 -0.1469  0.1101
 6673TIP3    H146130   0.700   3.109   6.898 -0.8088 -0.0903 -0.2659
 6673TIP3    H246131   0.643   3.250   6.901 -0.6105  0.0286 -1.6810
 6674TIP3   OH246132   6.483   6.991   0.317 -0.4633  0.0376 -0.3051
 6674TIP3    H146133   6.427   6.940   0.259 -1.5322 -1.7824  2.1379
 6674TIP3    H246134   6.423   7.035   0.377  0.5784  2.1834 -0.7370
 6675TIP3   OH246135   3.927   7.121   6.427 -0.2111 -0.6069  0.0984
 6675TIP3    H146136   3.875   7.066   6.369 -1.5411  1.0003 -0.2838
 6675TIP3    H246137   3.922   7.077   6.512 -0.5976 -1.4731 -0.3557
 6676TIP3   OH246138   2.968   4.946   0.716  0.4547 -0.0899  0.4218
 6676TIP3    H146139   3.047   4.931   0.766  1.0192  0.0426 -0.4045
 6676TIP3    H246140   2.962   4.870   0.657 -0.8652 -0.8711  1.5060
 6677TIP3   OH246141   0.852   6.138   1.649 -0.1642  0.1098  0.1489
 6677TIP3    H146142   0.888   6.213   1.697  0.9531 -1.5229  2.0364
 6677TIP3    H246143   0.790   6.098   1.710  1.3002 -2.0365  0.3833
 6678TIP3   OH246144   0.181   1.559   0.477 -0.1886  0.0730 -0.3060
 6678TIP3    H146145   0.224   1.543   0.561 -1.5406 -0.4512  0.3207
 6678TIP3    H246146   0.224   1.499   0.416 -0.6262 -1.1316  0.5197
 6679TIP3   OH246147   6.240   5.632   1.094  0.1694 -0.2040  0.2752
 6679TIP3    H146148   6.259   5.539   1.104  1.4907  0.0301  0.1171
 6679TIP3    H246149   6.223   5.662   1.184  2.1519 -0.1367  0.6884
 6680TIP3   OH246150   0.489   3.621   1.391 -0.3282  0.0658  0.4694
 6680TIP3    H146151   0.402   3.582   1.399 -0.3185 -0.1241 -0.2880
 6680TIP3    H246152   0.540   3.557   1.341  1.2651 -1.4300  3.7111
 6681TIP3   OH246153   6.605   3.306   5.845  0.2470  0.3097 -0.1045
 6681TIP3    H146154   6.655   3.327   5.924 -1.1894 -1.7162  1.4477
 6681TIP3    H246155   6.626   3.215   5.828 -0.4229  0.3827 -1.3653
 6682TIP3   OH246156   4.910   1.830   7.115 -0.2565  0.4108 -0.3555
 6682TIP3    H146157   4.856   1.864   7.186 -1.4906 -1.9107 -0.0577
 6682TIP3    H246158   4.894   1.888   7.041 -4.4582 -0.9344 -0.7471
 6683TIP3   OH246159   4.105   3.546   1.713  0.1313  0.5791 -0.8272
 6683TIP3    H146160   4.030   3.528   1.655 -0.2712 -1.2820  0.1967
 6683TIP3    H246161   4.073   3.613   1.773 -0.1001  1.1105 -1.5336
 6684TIP3   OH246162   6.129   1.474   7.841  0.1242  0.4151 -0.4158
 6684TIP3    H146163   6.131   1.387   7.880 -0.1358  0.4787 -0.2604
 6684TIP3    H246164   6.192   1.470   7.769 -0.1460  0.0007 -0.6245
 6685TIP3   OH246165   3.555   2.330   0.527 -0.1672 -0.3668 -0.4963
 6685TIP3    H146166   3.617   2.306   0.458 -0.7487  1.3356 -1.7017
 6685TIP3    H246167   3.473   2.289   0.500  0.0412 -1.2890  0.2378
 6686TIP3   OH246168   7.355   4.876   6.413  1.0651  0.1367 -0.1661
 6686TIP3    H146169   7.395   4.955   6.448  0.9640  0.0006  0.2658
 6686TIP3    H246170   7.264   4.880   6.443  0.4388  0.9896 -2.0368
 6687TIP3   OH246171   4.051   5.810   5.905  0.9041 -0.2348  0.5099
 6687TIP3    H146172   4.106   5.823   5.827  0.5554  2.6840  0.6451
 6687TIP3    H246173   4.009   5.725   5.890  1.3683 -0.0960 -2.1595
 6688TIP3   OH246174   2.732   4.868   1.541  0.3221  0.4093  0.7644
 6688TIP3    H146175   2.676   4.799   1.505  2.0361 -0.0601 -1.1801
 6688TIP3    H246176   2.755   4.923   1.466  0.2265  2.2446  2.0062
 6689TIP3   OH246177   5.569   4.010   7.181 -0.0643  0.1870 -0.3754
 6689TIP3    H146178   5.618   3.944   7.229 -0.2332 -0.9907 -1.7852
 6689TIP3    H246179   5.627   4.038   7.111 -0.5375  0.5017 -0.6506
 6690TIP3   OH246180   7.985   5.178   0.358  0.1758  0.0757  0.2722
 6690TIP3    H146181   8.055   5.222   0.309 -0.1841 -0.0512 -0.3661
 6690TIP3    H246182   8.014   5.087   0.365  0.6811  0.2909  1.1505
 6691TIP3   OH246183   0.249   7.241   1.514 -0.5914 -0.6544  0.1141
 6691TIP3    H146184   0.253   7.224   1.608 -0.8565 -1.5007 -0.0180
 6691TIP3    H246185   0.212   7.161   1.476  0.3625 -0.6892 -0.8041
 6692TIP3   OH246186   6.691   1.188   7.135 -0.0578  0.3792 -0.1986
 6692TIP3    H146187   6.639   1.112   7.108  1.8034 -0.8730 -0.3892
 6692TIP3    H246188   6.718   1.229   7.053  0.7649 -0.0491 -0.1497
 6693TIP3   OH246189   3.513   3.710   7.742  0.3111 -0.3305  0.1624
 6693TIP3    H146190   3.542   3.731   7.831 -0.1792  1.4361 -0.0642
 6693TIP3    H246191   3.590   3.725   7.688 -0.2894  2.1237 -0.1356
 6694TIP3   OH246192   6.405   5.966   6.855  0.2805 -0.5352  0.1157
 6694TIP3    H146193   6.404   6.031   6.925 -1.1719 -1.8032  1.3223
 6694TIP3    H246194   6.497   5.965   6.825  0.2236  2.5590 -0.5048
 6695TIP3   OH246195   2.000   2.540   0.530 -0.3844  0.8168  0.2931
 6695TIP3    H146196   2.080   2.571   0.488 -0.0890  0.4833  0.6089
 6695TIP3    H246197   2.026   2.520   0.620 -0.3926 -1.0230 -0.0756
 6696TIP3   OH246198   1.401   1.983   7.559 -0.3825  0.2635  0.2973
 6696TIP3    H146199   1.391   2.051   7.492 -2.3843 -0.9255 -0.6879
 6696TIP3    H246200   1.342   2.010   7.629 -0.3694  0.0876  0.3764
 6697TIP3   OH246201   5.717   7.058   0.160 -0.4805 -0.3507  0.0542
 6697TIP3    H146202   5.628   7.064   0.124 -0.2342 -2.9505 -1.1845
 6697TIP3    H246203   5.705   7.070   0.254 -1.6614  2.6000 -0.3435
 6698TIP3   OH246204   6.363   5.313   0.388 -0.9466 -0.2073 -0.7967
 6698TIP3    H146205   6.320   5.236   0.425 -0.6919 -1.0728 -2.2378
 6698TIP3    H246206   6.454   5.306   0.416 -1.0835 -0.0152 -0.2954
 6699TIP3   OH246207   0.458   2.398   2.331 -0.0900  0.2623  0.2734
 6699TIP3    H146208   0.522   2.329   2.314 -0.9461 -0.8744  1.4322
 6699TIP3    H246209   0.479   2.430   2.419 -0.1096  1.0189  0.0062
 6700TIP3   OH246210   7.135   1.660   2.632 -0.3880 -0.4820 -0.0446
 6700TIP3    H146211   7.221   1.637   2.596  0.1071  1.9479 -0.6077
 6700TIP3    H246212   7.075   1.650   2.558  0.0503  1.1749 -0.6736
 6701TIP3   OH246213   2.084   0.627   6.406  0.1473 -0.2463  0.4372
 6701TIP3    H146214   2.071   0.718   6.378  1.9324  0.3573  1.4263
 6701TIP3    H246215   2.103   0.579   6.326 -0.4446  0.3113 -0.0488
 6702TIP3   OH246216   3.079   4.036   6.764  0.1135 -0.2171 -0.3839
 6702TIP3    H146217   3.142   4.099   6.729 -0.0823  1.5219  2.1240
 6702TIP3    H246218   3.120   3.951   6.750  2.5679  0.7761  0.1649
 6703TIP3   OH246219   5.109   0.260   7.124  0.1750 -0.3257 -0.2970
 6703TIP3    H146220   5.123   0.170   7.156 -0.1762 -0.4593 -0.5109
 6703TIP3    H246221   5.130   0.255   7.031 -0.0342 -0.2287 -0.3490
 6704TIP3   OH246222   1.616   7.399   6.860 -0.3659 -0.2473 -0.0188
 6704TIP3    H146223   1.587   7.477   6.813  1.1775  1.1093  1.1631
 6704TIP3    H246224   1.653   7.433   6.942 -1.4576 -2.3768  1.4707
 6705TIP3   OH246225   0.812   7.447   0.571 -0.5544  0.2166  1.0594
 6705TIP3    H146226   0.755   7.382   0.530  1.8579 -2.1169  1.1484
 6705TIP3    H246227   0.839   7.504   0.499  0.0571 -1.0610  0.2449
 6706TIP3   OH246228   7.635   8.057   0.277  0.1113  0.1361  0.1656
 6706TIP3    H146229   7.595   8.140   0.253  0.7300  0.7913  1.3369
 6706TIP3    H246230   7.696   8.078   0.347  0.3047 -1.3061  0.4743
 6707TIP3   OH246231   7.945   0.314   5.134 -0.2152 -0.4655  0.7738
 6707TIP3    H146232   7.870   0.267   5.098  1.6446 -2.1413 -1.1432
 6707TIP3    H246233   7.968   0.377   5.065  1.7942 -1.9027  0.0656
 6708TIP3   OH246234   4.164   3.400   6.399 -0.5317 -0.1404 -0.0875
 6708TIP3    H146235   4.070   3.409   6.386 -0.9772 -3.4235  0.0796
 6708TIP3    H246236   4.200   3.394   6.310 -0.8419 -1.3598 -0.1477
 6709TIP3   OH246237   4.352   7.012   0.488 -0.1596  0.9072  0.7067
 6709TIP3    H146238   4.311   6.925   0.480 -2.6510  2.1335 -1.2001
 6709TIP3    H246239   4.307   7.052   0.562 -0.2756  1.1821  0.4894
 6710TIP3   OH246240   5.432   3.758   0.950  0.2530 -0.1833 -0.6764
 6710TIP3    H146241   5.485   3.681   0.930 -1.4464 -2.0624  1.5753
 6710TIP3    H246242   5.344   3.735   0.920 -0.3412  0.7581  0.2748
 6711TIP3   OH246243   6.943   5.267   7.577  0.0730 -0.2070  0.4379
 6711TIP3    H146244   7.000   5.202   7.535  0.0074 -0.9385  1.4311
 6711TIP3    H246245   7.004   5.330   7.616  0.1279  0.5804 -0.9049
 6712TIP3   OH246246   3.853   4.485   0.007 -0.4224  0.4099 -0.0635
 6712TIP3    H146247   3.901   4.457   0.085 -2.1379  0.3419  0.9991
 6712TIP3    H246248   3.922   4.507  -0.056  1.0013 -1.2534  0.8175
 6713TIP3   OH246249   1.690   1.356   6.095  0.2191 -0.2447  0.4833
 6713TIP3    H146250   1.735   1.429   6.052 -0.1424 -0.7185 -0.7465
 6713TIP3    H246251   1.639   1.315   6.025 -2.0933  0.2326  1.7797
 6714TIP3   OH246252   7.200   1.742   7.550 -0.4730  0.7111  0.3542
 6714TIP3    H146253   7.189   1.698   7.466  1.0890  1.0085 -0.0344
 6714TIP3    H246254   7.111   1.748   7.586 -1.0995  0.1198 -1.0289
 6715TIP3   OH246255   7.706   5.992   0.123 -0.0423  0.8242  0.1166
 6715TIP3    H146256   7.664   6.025   0.202  1.3641  2.4178  0.2316
 6715TIP3    H246257   7.770   5.928   0.154 -2.2470 -1.7053 -0.0659
 6716TIP3   OH246258   3.021   4.961   6.244  0.6569 -0.1517 -0.1257
 6716TIP3    H146259   2.964   4.976   6.320  0.5122  3.2003 -0.7260
 6716TIP3    H246260   2.961   4.966   6.169  1.2559 -0.1086 -0.6045
 6717TIP3   OH246261   4.004   7.628   0.974  0.9563 -0.1255  0.2185
 6717TIP3    H146262   4.006   7.590   0.886 -1.6391 -2.1096  0.9150
 6717TIP3    H246263   3.912   7.650   0.989  1.7880  3.2128  1.3002
 6718TIP3   OH246264   4.273   7.002   1.785  0.3094  0.6871 -0.0598
 6718TIP3    H146265   4.202   7.062   1.761  0.0188  0.8142  1.0741
 6718TIP3    H246266   4.231   6.916   1.788  0.9432  0.1827 -2.7456
 6719TIP3   OH246267   6.503   2.068   7.624 -0.3074 -0.1117 -0.0561
 6719TIP3    H146268   6.488   2.046   7.716  1.9031 -0.0248  0.3761
 6719TIP3    H246269   6.479   1.988   7.576  0.9617 -1.0654  0.8431
 6720TIP3   OH246270   6.155   4.710   6.290  0.0518  0.3238 -0.0719
 6720TIP3    H146271   6.076   4.657   6.279  0.4734 -0.3989  0.3034
 6720TIP3    H246272   6.149   4.743   6.379  0.1911  0.2317 -0.0283
 6721TIP3   OH246273   0.472   5.238   6.748  1.1154 -0.8309 -0.1839
 6721TIP3    H146274   0.441   5.302   6.813 -1.1058 -0.3247 -1.6346
 6721TIP3    H246275   0.417   5.161   6.762  0.4169 -0.6217 -1.5639
 6722TIP3   OH246276   7.113   4.564   0.511  0.3784 -0.2206  0.0393
 6722TIP3    H146277   7.054   4.495   0.540  0.5775 -0.2130  0.4706
 6722TIP3    H246278   7.196   4.519   0.493 -0.3493 -0.6075 -2.7418
 6723TIP3   OH246279   2.282   4.836   0.868 -0.1161 -0.2732  0.3758
 6723TIP3    H146280   2.237   4.904   0.819  0.3214 -0.3464 -0.1399
 6723TIP3    H246281   2.295   4.874   0.955 -1.0679 -0.2167  0.5064
 6724TIP3   OH246282   2.370   1.074   7.063 -0.3171 -0.1445  0.1077
 6724TIP3    H146283   2.339   0.999   7.114  0.0186 -0.9536 -0.8630
 6724TIP3    H246284   2.461   1.086   7.091 -0.7903  0.8826  1.3675
 6725TIP3   OH246285   0.643   6.362   0.005  0.4019 -0.1161 -0.0176
 6725TIP3    H146286   0.618   6.270  -0.010 -0.4669  0.0290  0.5038
 6725TIP3    H246287   0.738   6.363  -0.008  0.2905 -0.8913 -1.0190
 6726TIP3   OH246288   6.331   5.379   2.803  0.8154 -0.4502  0.9112
 6726TIP3    H146289   6.344   5.469   2.829  0.9240 -0.4769  0.9473
 6726TIP3    H246290   6.405   5.359   2.746 -0.0948  0.0335 -0.5243
 6727TIP3   OH246291   3.932   6.054   1.523  0.2201 -0.4687 -0.1103
 6727TIP3    H146292   3.948   6.104   1.603 -0.7769 -1.1000  0.5105
 6727TIP3    H246293   3.982   5.974   1.534  1.7927  0.3349 -1.0912
 6728TIP3   OH246294   4.618   1.406   7.854  0.3930  0.3578 -0.3595
 6728TIP3    H146295   4.540   1.442   7.895  1.3710  0.5703  1.4103
 6728TIP3    H246296   4.683   1.476   7.861  1.1973 -0.3732 -0.3532
 6729TIP3   OH246297   0.961   7.087   6.869  0.5648 -0.3455 -0.3245
 6729TIP3    H146298   0.916   7.163   6.907 -0.5970 -1.0603 -0.1877
 6729TIP3    H246299   1.033   7.124   6.818 -0.4918  0.9003 -0.9791
 6730TIP3   OH246300   0.233   6.538   1.333  0.1449 -0.0611  0.0969
 6730TIP3    H146301   0.217   6.497   1.418  0.7400  1.1967  0.8484
 6730TIP3    H246302   0.177   6.490   1.272 -0.0278 -1.2249  1.1249
 6731TIP3   OH246303   5.212   5.575   0.479 -0.2814 -0.1201 -0.1631
 6731TIP3    H146304   5.149   5.519   0.524  1.0239 -1.6328 -0.1241
 6731TIP3    H246305   5.218   5.654   0.533 -0.4677 -0.9184  1.0543
 6732TIP3   OH246306   4.274   2.306   0.464 -0.1152  0.7252  0.2230
 6732TIP3    H146307   4.228   2.266   0.539  0.6213  0.6623  0.6527
 6732TIP3    H246308   4.344   2.244   0.444  0.1327  1.0962 -0.0580
 6733TIP3   OH246309   0.742   0.814   0.902  0.0470  0.1706 -0.6452
 6733TIP3    H146310   0.679   0.850   0.840 -0.9239 -0.0986  0.1643
 6733TIP3    H246311   0.813   0.878   0.904 -1.7791  2.3522  1.0285
 6734TIP3   OH246312   7.604   3.589   0.350  0.3714 -0.4780  0.0943
 6734TIP3    H146313   7.582   3.682   0.347  0.5779 -0.4286  0.0141
 6734TIP3    H246314   7.551   3.549   0.281 -1.1943 -0.7529  1.4276
 6735TIP3   OH246315   7.545   0.020   7.823  0.2038 -0.2890 -0.0393
 6735TIP3    H146316   7.635  -0.002   7.848 -0.5747 -0.3774  3.1741
 6735TIP3    H246317   7.493  -0.052   7.859 -1.2766  0.5451 -0.4551
 6736TIP3   OH246318   3.033   7.808   1.519  0.2731 -0.2053 -0.0936
 6736TIP3    H146319   3.096   7.779   1.453  0.3496  2.1532 -1.1598
 6736TIP3    H246320   3.073   7.884   1.560 -0.4993 -0.6331  1.5724
 6737TIP3   OH246321   0.337   0.471   6.566 -0.4883 -0.1756 -0.4152
 6737TIP3    H146322   0.372   0.383   6.581 -0.2920 -0.1240 -0.5637
 6737TIP3    H246323   0.384   0.502   6.489  1.3687  1.0711  1.1283
 6738TIP3   OH246324   4.276   7.995   6.471  0.1126  0.3276 -0.4186
 6738TIP3    H146325   4.291   8.088   6.458 -0.3103  0.5084  0.3192
 6738TIP3    H246326   4.361   7.961   6.500 -0.1093  0.7762  0.8043
 6739TIP3   OH246327   0.810   5.024   0.879 -0.3483 -0.0588  0.6914
 6739TIP3    H146328   0.763   5.006   0.798 -0.2351  0.5075  0.4977
 6739TIP3    H246329   0.870   5.096   0.857 -2.1155  1.9083  1.9152
 6740TIP3   OH246330   6.250   4.589   6.733 -0.6134  0.2431 -0.4319
 6740TIP3    H146331   6.340   4.561   6.746 -0.4966  0.8510  0.1434
 6740TIP3    H246332   6.228   4.637   6.813 -2.5580 -2.6429  0.9269
 6741TIP3   OH246333   7.887   7.353   7.326  0.2985 -0.1437  0.2739
 6741TIP3    H146334   7.891   7.288   7.255 -1.3937  0.2534 -0.2212
 6741TIP3    H246335   7.820   7.415   7.298  1.5572  1.5945  0.9497
 6742TIP3   OH246336   3.489   4.061   0.959 -0.4009 -0.0039  0.0202
 6742TIP3    H146337   3.447   4.122   0.899  0.3975 -0.1638 -0.7317
 6742TIP3    H246338   3.495   4.108   1.042 -0.9530  0.4545 -0.1942
 6743TIP3   OH246339   0.842   4.347   1.378 -0.5262  0.2082 -0.8608
 6743TIP3    H146340   0.880   4.353   1.290  0.3495 -1.8630 -0.6796
 6743TIP3    H246341   0.917   4.355   1.437 -0.9218  0.2401 -0.3560
 6744TIP3   OH246342   0.701   0.140   7.033  0.1538  0.3071  0.2287
 6744TIP3    H146343   0.657   0.198   7.094  0.6940  0.8720  0.0870
 6744TIP3    H246344   0.780   0.187   7.007  0.6781 -0.5459  0.2268
 6745TIP3   OH246345   3.700   8.004   6.411  0.0728  0.3736 -0.0224
 6745TIP3    H146346   3.786   7.962   6.413 -0.2503 -0.2765  0.5208
 6745TIP3    H246347   3.644   7.947   6.464 -0.7593  0.6403 -0.5897
 6746TIP3   OH246348   2.465   1.482   6.981  0.0904  0.1081 -0.0998
 6746TIP3    H146349   2.467   1.398   6.936  1.4774 -0.0170  0.1553
 6746TIP3    H246350   2.545   1.527   6.954  0.7531  0.2170  1.8253
 6747TIP3   OH246351   7.481   1.162   2.257  0.3465 -0.0866 -0.1387
 6747TIP3    H146352   7.525   1.130   2.335 -1.6116  0.4653  1.2731
 6747TIP3    H246353   7.457   1.083   2.209  1.4843 -0.4346 -0.1747
 6748TIP3   OH246354   1.612   0.432   7.525 -0.0540 -0.1499  0.1047
 6748TIP3    H146355   1.584   0.524   7.523 -0.5887 -0.3112 -1.8408
 6748TIP3    H246356   1.679   0.429   7.594  0.7628  1.9330 -0.5107
 6749TIP3   OH246357   1.572   0.743   6.862 -0.7041  0.1011  0.8168
 6749TIP3    H146358   1.514   0.816   6.885  1.0941  1.9384 -0.2085
 6749TIP3    H246359   1.660   0.773   6.887  0.1045 -1.7135  0.3110
 6750TIP3   OH246360   4.148   7.902   0.787  0.3357 -0.0030  0.6961
 6750TIP3    H146361   4.190   7.888   0.703  2.0413  0.9133  1.3492
 6750TIP3    H246362   4.201   7.853   0.850 -1.6771 -1.7928  1.1341
 6751TIP3   OH246363   0.684   4.894   0.420 -0.7833  0.0769  0.6889
 6751TIP3    H146364   0.650   4.913   0.333  1.4713 -0.2988 -0.3503
 6751TIP3    H246365   0.615   4.841   0.462 -2.5902  1.5963 -0.2252
 6752TIP3   OH246366   2.015   4.342   1.487 -0.0133  0.6166 -0.2164
 6752TIP3    H146367   2.035   4.328   1.580  2.5581  2.7986 -0.3085
 6752TIP3    H246368   2.069   4.278   1.441 -1.8118 -0.9357 -0.2547
 6753TIP3   OH246369   3.213   4.137   6.364  0.0128  0.5150 -0.3154
 6753TIP3    H146370   3.149   4.079   6.323 -0.6584  1.2494 -0.3499
 6753TIP3    H246371   3.160   4.210   6.397  0.8750  1.2714 -0.5783
 6754TIP3   OH246372   3.708   7.465   1.201  0.3320 -0.2453 -0.4561
 6754TIP3    H146373   3.761   7.413   1.141  0.6680 -0.3387 -0.0792
 6754TIP3    H246374   3.765   7.482   1.276 -0.5493 -1.4079  0.5297
 6755TIP3   OH246375   5.139   2.493   6.423  0.1142  0.4584 -0.2948
 6755TIP3    H146376   5.067   2.539   6.465  0.1222  1.2639 -1.1469
 6755TIP3    H246377   5.101   2.455   6.343  0.4411  0.1862 -0.3259
 6756TIP3   OH246378   5.221   2.415   0.645 -0.4332 -0.9088  0.4945
 6756TIP3    H146379   5.141   2.377   0.681 -1.5234  1.3184  0.5696
 6756TIP3    H246380   5.196   2.447   0.559  0.5895 -0.8104  0.2204
 6757TIP3   OH246381   5.160   3.870   5.746  0.2237  0.5583  0.1326
 6757TIP3    H146382   5.087   3.857   5.806  0.1087  0.3554 -0.0531
 6757TIP3    H246383   5.124   3.855   5.659  0.7649 -0.7913  0.1153
 6758TIP3   OH246384   2.261   2.645   7.369  0.1568 -0.3045  0.1708
 6758TIP3    H146385   2.211   2.638   7.287 -1.4054  0.1144  1.0375
 6758TIP3    H246386   2.194   2.642   7.437  1.2827  0.8710  1.3838
 6759TIP3   OH246387   2.601   7.869   6.030 -0.0744  0.2443 -0.2399
 6759TIP3    H146388   2.639   7.938   5.977  1.3428  1.5051  2.2524
 6759TIP3    H246389   2.639   7.788   5.995  0.3618  0.9570 -1.4609
 6760TIP3   OH246390   3.185   6.655   6.641 -0.1486  0.1704  0.0463
 6760TIP3    H146391   3.143   6.741   6.635 -0.3350  0.2471  1.8002
 6760TIP3    H246392   3.276   6.671   6.614 -0.0983  0.9999  0.6771
 6761TIP3   OH246393   7.750   1.497   5.616  0.4817  0.1953 -0.2927
 6761TIP3    H146394   7.833   1.465   5.581  0.1009 -0.4291 -0.6503
 6761TIP3    H246395   7.701   1.524   5.538  0.1463  0.0642 -0.1296
 6762TIP3   OH246396   0.434   0.684   5.481 -0.2226 -0.2976 -0.4989
 6762TIP3    H146397   0.464   0.632   5.406 -0.0886 -0.8096 -0.0975
 6762TIP3    H246398   0.476   0.769   5.470 -0.2027 -0.3694 -1.0036
 6763TIP3   OH246399   4.368   1.520   7.937 -0.3516  0.1554 -0.4166
 6763TIP3    H146400   4.284   1.530   7.981 -0.4558 -1.5487 -0.1754
 6763TIP3    H246401   4.354   1.557   7.850 -0.4890  2.4665  0.5170
 6764TIP3   OH246402   4.826   7.138   6.481 -0.2899 -0.0006 -0.0216
 6764TIP3    H146403   4.881   7.187   6.543  1.7096 -2.2022  0.0838
 6764TIP3    H246404   4.809   7.055   6.526  0.3060 -1.2267 -1.9350
 6765TIP3   OH246405   6.806   7.612   0.196  0.0827  0.4594  0.5095
 6765TIP3    H146406   6.768   7.531   0.231  2.2309 -0.5179  0.7495
 6765TIP3    H246407   6.820   7.667   0.272  1.2199 -0.1157  0.7353
 6766TIP3   OH246408   3.005   2.648   6.965 -0.0289  0.6167  0.0519
 6766TIP3    H146409   3.066   2.615   7.031  0.9038  0.9832 -0.6046
 6766TIP3    H246410   3.042   2.619   6.882 -0.5298  1.2067 -0.3847
 6767TIP3   OH246411   4.944   6.751   0.063  0.7618  0.0266 -0.1697
 6767TIP3    H146412   4.906   6.784  -0.018  0.1665  2.4099  0.9844
 6767TIP3    H246413   4.967   6.829   0.112  0.3082 -1.3071  2.3312
 6768TIP3   OH246414   1.079   5.268   0.295 -0.0813  0.5093  0.3455
 6768TIP3    H146415   1.078   5.258   0.390 -3.0239  1.5045  0.5268
 6768TIP3    H246416   1.050   5.358   0.280 -0.4468  0.1300 -1.5032
 6769TIP3   OH246417   0.607   1.022   0.723  0.0740 -0.0501  0.3335
 6769TIP3    H146418   0.540   0.997   0.659  0.1655 -0.4965  0.4086
 6769TIP3    H246419   0.559   1.071   0.790 -0.2425 -0.6629  0.5643
 6770TIP3   OH246420   0.696   0.126   0.810  0.2945 -0.5090 -0.3887
 6770TIP3    H146421   0.771   0.070   0.830  1.5995  1.0217 -0.8085
 6770TIP3    H246422   0.721   0.212   0.841 -2.7034 -0.5208  2.6534
 6771TIP3   OH246423   5.585   3.946   7.595 -0.1348 -0.0986  0.0324
 6771TIP3    H146424   5.653   4.013   7.600  0.6231 -0.8869  0.5381
 6771TIP3    H246425   5.619   3.883   7.531 -0.3260 -0.5577  0.3807
 6772TIP3   OH246426   4.012   2.244   7.415 -0.1789 -0.1465 -0.4834
 6772TIP3    H146427   4.057   2.163   7.392  2.0418  0.1017  2.4150
 6772TIP3    H246428   3.974   2.228   7.501 -1.6632  1.2137 -0.8306
 6773TIP3   OH246429   6.900   2.506   7.528  0.0725  0.2075  0.1262
 6773TIP3    H146430   6.810   2.505   7.494  0.0939  1.8033 -0.0670
 6773TIP3    H246431   6.907   2.591   7.573  0.2124 -1.5097  3.6818
 6774TIP3   OH246432   0.747   7.876   0.042 -0.3109  0.6840  0.0663
 6774TIP3    H146433   0.794   7.893   0.123 -1.9986  1.8937  0.8592
 6774TIP3    H246434   0.722   7.963   0.010  0.9217  0.3023 -2.1691
 6775TIP3   OH246435   5.847   1.393   0.130 -0.6299 -0.4920  0.1948
 6775TIP3    H146436   5.751   1.397   0.125 -0.6000 -0.9172 -1.8274
 6775TIP3    H246437   5.876   1.482   0.111 -0.6098 -0.3795  0.7354
 6776TIP3   OH246438   3.617   1.901   7.609  0.2408 -0.0887  0.2292
 6776TIP3    H146439   3.635   1.903   7.703  0.4693  0.2668  0.1810
 6776TIP3    H246440   3.686   1.956   7.570  0.6934 -0.9732 -0.2371
 6777TIP3   OH246441   4.961   3.954   2.428 -0.7056 -0.4737  0.1015
 6777TIP3    H146442   4.945   3.915   2.342 -1.7133  1.7140 -0.7821
 6777TIP3    H246443   5.026   3.897   2.468 -0.9032 -2.0942 -1.7300
 6778TIP3   OH246444   4.590   4.391   6.831 -0.5028  0.3965 -0.0872
 6778TIP3    H146445   4.585   4.443   6.912  0.2232 -0.0299  0.2415
 6778TIP3    H246446   4.513   4.417   6.781 -0.8506  0.8234  0.6530
 6779TIP3   OH246447   6.493   3.884   0.737  0.0234 -0.3960 -0.5739
 6779TIP3    H146448   6.434   3.813   0.765 -0.5589  0.0061 -0.7593
 6779TIP3    H246449   6.438   3.962   0.738  0.5690 -0.0070 -0.7268
 6780TIP3   OH246450   5.417   3.134   1.418  0.4904  0.3537  0.4038
 6780TIP3    H146451   5.438   3.220   1.455  1.1675  0.8212 -0.9954
 6780TIP3    H246452   5.326   3.119   1.442  0.4062  1.4061  0.8005
 6781TIP3   OH246453   4.604   2.848   5.933 -0.1514 -0.9102 -0.1503
 6781TIP3    H146454   4.530   2.828   5.876 -0.3082 -0.7611 -0.0015
 6781TIP3    H246455   4.679   2.805   5.892 -0.1509 -0.3084 -0.7925
 6782TIP3   OH246456   0.083   2.784   0.985 -0.0873  0.4871  0.3522
 6782TIP3    H146457   0.006   2.808   1.037 -0.8279 -1.6025  0.3040
 6782TIP3    H246458   0.053   2.711   0.930  1.8823 -0.2738  0.2138
 6783TIP3   OH246459   6.486   5.823   5.907  0.3023 -0.5893  0.1853
 6783TIP3    H146460   6.511   5.823   5.815  2.0910 -1.1487  0.6270
 6783TIP3    H246461   6.569   5.826   5.955 -0.4616 -2.3680  1.7807
 6784TIP3   OH246462   2.556   3.329   0.414  0.6410  0.5346 -0.1788
 6784TIP3    H146463   2.531   3.246   0.374  0.9448  0.3894 -0.0668
 6784TIP3    H246464   2.565   3.389   0.340  0.0690  0.5664 -0.2321
 6785TIP3   OH246465   4.315   3.187   7.415 -0.1058  0.1000 -0.0003
 6785TIP3    H146466   4.343   3.233   7.336 -0.7037  1.6540  0.6744
 6785TIP3    H246467   4.258   3.248   7.461 -1.3319 -1.4761  0.7028
 6786TIP3   OH246468   6.497   2.173   1.880  0.0998 -0.1052 -0.5372
 6786TIP3    H146469   6.559   2.211   1.817 -0.1444  0.2437 -0.5627
 6786TIP3    H246470   6.433   2.242   1.896 -0.8131 -0.7597 -1.2163
 6787TIP3   OH246471   0.920   1.073   7.654 -0.3103 -0.6483  0.1767
 6787TIP3    H146472   0.894   1.141   7.591  1.4083  0.2321  0.3538
 6787TIP3    H246473   0.838   1.028   7.675 -1.2217  0.2238 -1.2818
 6788TIP3   OH246474   6.085   0.914   7.851  0.1943  0.1924  0.2277
 6788TIP3    H146475   6.168   0.898   7.897 -0.1855  0.8954  1.1926
 6788TIP3    H246476   6.112   0.944   7.764  0.9221 -1.3815 -0.1256
 6789TIP3   OH246477   6.982   5.226   0.317 -0.0139  0.0364  0.0143
 6789TIP3    H146478   7.000   5.142   0.360 -1.3525 -0.6382 -0.6833
 6789TIP3    H246479   6.919   5.269   0.374  2.5887  1.8095  1.7641
 6790TIP3   OH246480   2.044   3.071   1.554 -0.0785 -0.3342  0.1697
 6790TIP3    H146481   2.054   3.032   1.641  1.3033 -0.4913 -0.0459
 6790TIP3    H246482   2.018   3.162   1.572  0.2142 -0.3603  0.7513
 6791TIP3   OH246483   6.327   6.253   1.504  0.0758  0.5023  0.9866
 6791TIP3    H146484   6.254   6.191   1.506 -0.7720  1.0951 -2.8583
 6791TIP3    H246485   6.314   6.308   1.581 -2.2189 -0.7965  1.6299
 6792TIP3   OH246486   7.843   8.109   7.827 -0.4688  0.2736 -0.3402
 6792TIP3    H146487   7.881   8.186   7.870  0.5765  0.0078 -0.7474
 6792TIP3    H246488   7.912   8.078   7.768 -0.4403 -1.6384  0.6237
 6793TIP3   OH246489   6.885   1.131   7.551  0.2816  0.1464 -0.1964
 6793TIP3    H146490   6.798   1.127   7.511 -0.0428 -1.2089  0.5936
 6793TIP3    H246491   6.943   1.155   7.478 -0.7869  1.4773 -0.6428
 6794TIP3   OH246492   6.847   6.115   6.605 -0.0682 -0.0838  0.4183
 6794TIP3    H146493   6.836   6.130   6.511 -0.6919  1.9006  0.7589
 6794TIP3    H246494   6.942   6.103   6.616 -0.0431 -0.8805 -0.5107
 6795TIP3   OH246495   4.155   0.590   0.262  0.5070  0.3143 -0.0688
 6795TIP3    H146496   4.161   0.542   0.344 -1.0558 -1.2127 -0.8023
 6795TIP3    H246497   4.113   0.673   0.286  0.1154 -0.0927  0.6882
 6796TIP3   OH246498   5.171   6.806   7.112  0.0115  0.7520 -0.0641
 6796TIP3    H146499   5.148   6.775   7.200 -2.9710 -0.1361 -1.0297
 6796TIP3    H246500   5.129   6.891   7.104  0.5645  0.9913 -0.5488
 6797TIP3   OH246501   0.960   5.492   0.255 -0.1384  0.3974 -0.1888
 6797TIP3    H146502   0.961   5.519   0.163  0.6230  1.6295  0.1517
 6797TIP3    H246503   0.869   5.468   0.272 -0.3485  0.4691 -1.1856
 6798TIP3   OH246504   0.394   7.334   7.008  0.0567  0.1838 -0.2879
 6798TIP3    H146505   0.370   7.253   7.053  0.9224  0.8911  1.5769
 6798TIP3    H246506   0.455   7.306   6.939  2.1520 -0.6403  1.7499
 6799TIP3   OH246507   1.986   5.066   0.869  0.6947  0.0249 -0.1755
 6799TIP3    H146508   1.930   5.115   0.809  2.2293  0.8454 -0.9922
 6799TIP3    H246509   2.075   5.084   0.840  1.4155 -1.2402  1.0791
 6800TIP3   OH246510   0.622   7.301   7.193  0.2356  0.3124 -0.2277
 6800TIP3    H146511   0.533   7.323   7.165  0.2208 -0.5017 -0.8467
 6800TIP3    H246512   0.635   7.354   7.272 -0.9657  0.1102  0.1375
 6801TIP3   OH246513   3.223   7.995   6.659 -0.1347  0.2406  0.1704
 6801TIP3    H146514   3.145   8.031   6.700  0.0947  0.6335  0.2718
 6801TIP3    H246515   3.202   7.903   6.642 -0.5781  0.3202  0.2882
 6802TIP3   OH246516   2.048   3.211   0.941  0.4688 -0.1044  0.2104
 6802TIP3    H146517   1.980   3.165   0.892  0.1006  0.8982 -0.2470
 6802TIP3    H246518   2.115   3.144   0.958 -0.3982 -0.9855  0.2481
 6803TIP3   OH246519   6.683   3.707   1.520 -0.3821 -0.1710  0.2659
 6803TIP3    H146520   6.695   3.655   1.440  1.5425 -2.5642  1.9683
 6803TIP3    H246521   6.617   3.660   1.570 -0.1199  0.1824  0.9562
 6804TIP3   OH246522   3.830   1.845   0.880 -0.2677 -0.3705 -0.6447
 6804TIP3    H146523   3.834   1.938   0.905 -1.6997 -0.8137  1.4983
 6804TIP3    H246524   3.755   1.839   0.822 -1.0054 -0.3937  0.3006
 6805TIP3   OH246525   0.230   2.471   6.534  0.5845 -0.3550  0.1255
 6805TIP3    H146526   0.189   2.456   6.449 -1.4827  1.2974  0.7591
 6805TIP3    H246527   0.233   2.384   6.575 -2.2905 -0.6113 -0.0186
 6806TIP3   OH246528   6.388   4.203   7.831  0.0251 -0.1954  0.0372
 6806TIP3    H146529   6.400   4.154   7.750  1.2276 -1.5073  0.9655
 6806TIP3    H246530   6.477   4.213   7.867 -0.3261  1.5658  0.5351
 6807TIP3   OH246531   5.148   6.614   0.212 -0.2404 -0.6953  1.1492
 6807TIP3    H146532   5.088   6.661   0.154  0.7808 -2.3062 -1.3431
 6807TIP3    H246533   5.232   6.659   0.202  0.4314 -2.1739 -0.2700
 6808TIP3   OH246534   2.714   4.868   7.476 -0.2618  0.0917 -0.7781
 6808TIP3    H146535   2.809   4.864   7.479 -0.2881 -0.1485  0.6428
 6808TIP3    H246536   2.693   4.960   7.494 -0.2939  0.5307 -2.8183
 6809TIP3   OH246537   6.921   6.708   7.857 -0.6340 -0.0629 -0.0566
 6809TIP3    H146538   6.844   6.699   7.913  0.1098 -0.9442  0.8815
 6809TIP3    H246539   6.904   6.785   7.804 -2.6359 -0.8581 -0.6542
 6810TIP3   OH246540   5.162   4.157   1.171 -0.0001  0.0059 -0.3906
 6810TIP3    H146541   5.200   4.172   1.258 -2.3083  1.7748  0.4438
 6810TIP3    H246542   5.168   4.242   1.127 -0.8644 -0.2627 -1.0597
 6811TIP3   OH246543   4.967   4.731   7.040  0.0982 -0.3815 -0.1191
 6811TIP3    H146544   4.917   4.745   6.959  0.2323 -1.5670 -0.4147
 6811TIP3    H246545   4.909   4.681   7.097 -0.8702  2.3004  1.4504
 6812TIP3   OH246546   7.549   7.483   0.337 -0.2114 -0.0539  0.0069
 6812TIP3    H146547   7.554   7.507   0.244  0.5797  1.4261  0.3888
 6812TIP3    H246548   7.506   7.558   0.378 -1.4318 -1.1111  0.7195
 6813TIP3   OH246549   1.892   0.343   1.326  0.1529  0.9370  0.0552
 6813TIP3    H146550   1.846   0.394   1.260  0.4438 -0.3749 -1.2114
 6813TIP3    H246551   1.900   0.256   1.288  2.0229  0.6238  1.0346
 6814TIP3   OH246552   4.195   6.678   6.840  0.5207 -0.3370  0.9640
 6814TIP3    H146553   4.129   6.623   6.798  0.4442  0.2627  0.2813
 6814TIP3    H246554   4.278   6.646   6.805  0.3397  1.6840 -1.5581
 6815TIP3   OH246555   5.935   2.301   6.973  0.2107  0.4623  0.1947
 6815TIP3    H146556   5.849   2.342   6.960 -0.1351  0.8448  3.0150
 6815TIP3    H246557   5.974   2.298   6.885 -3.5636 -1.9347 -1.6521
 6816TIP3   OH246558   1.991   4.078   1.979 -0.2056  0.0947 -0.3903
 6816TIP3    H146559   2.066   4.021   1.969 -0.4263 -0.5225  1.1432
 6816TIP3    H246560   1.917   4.028   1.944 -0.4349 -0.7058  1.1374
 6817TIP3   OH246561   3.059   3.842   7.371 -0.2564 -0.7427 -0.3230
 6817TIP3    H146562   3.014   3.858   7.288 -0.4386  1.3701  0.1083
 6817TIP3    H246563   3.014   3.766   7.408 -2.5327  0.3466 -0.6133
 6818TIP3   OH246564   0.297   4.215   1.785  0.2061  0.2084 -0.2488
 6818TIP3    H146565   0.267   4.281   1.847  0.2804  0.7893 -0.8228
 6818TIP3    H246566   0.243   4.229   1.707  1.7600  1.1055 -1.2095
 6819TIP3   OH246567   6.947   4.539   0.084  0.0331  0.1081 -0.2260
 6819TIP3    H146568   7.035   4.525   0.050  0.6656  1.6262  0.7103
 6819TIP3    H246569   6.960   4.577   0.171 -1.5260  1.0475 -0.3703
 6820TIP3   OH246570   0.402   3.025   6.652 -0.0752  0.6916  0.4865
 6820TIP3    H146571   0.473   3.078   6.615  0.0989  0.0429 -0.1262
 6820TIP3    H246572   0.424   3.017   6.745 -0.3398  2.0573  0.6824
 6821TIP3   OH246573   1.517   7.077   7.297  0.1457  0.3655  0.4321
 6821TIP3    H146574   1.498   7.155   7.245  1.7273 -0.0581 -0.8459
 6821TIP3    H246575   1.453   7.080   7.368 -1.7358  1.2822 -1.1947
 6822TIP3   OH246576   1.231   5.583   0.686  0.4849  0.6108  0.0706
 6822TIP3    H146577   1.293   5.519   0.720 -0.9053 -0.6168  0.4360
 6822TIP3    H246578   1.229   5.653   0.751  2.2613  1.2307 -0.4905
 6823TIP3   OH246579   4.576   4.796   0.519  0.6537 -0.2325  0.1217
 6823TIP3    H146580   4.511   4.786   0.449  0.7965 -0.1800 -0.0199
 6823TIP3    H246581   4.553   4.878   0.562  0.7646 -0.0987 -0.0741
 6824TIP3   OH246582   8.084   3.438   1.419  0.3722  0.1483  0.0010
 6824TIP3    H146583   8.094   3.429   1.324 -1.2259  0.6522 -0.2409
 6824TIP3    H246584   8.026   3.513   1.430 -1.6110 -1.4618  1.2646
 6825TIP3   OH246585   5.447   6.264   0.397 -0.5758 -0.5069  0.6947
 6825TIP3    H146586   5.406   6.326   0.456 -0.4142 -0.4337  0.7316
 6825TIP3    H246587   5.530   6.242   0.439  0.8967  1.7237 -0.8237
 6826TIP3   OH246588   1.151   2.575   7.506 -0.7574  0.5767  0.2825
 6826TIP3    H146589   1.153   2.498   7.564 -0.5321 -0.2326 -0.7782
 6826TIP3    H246590   1.081   2.630   7.542 -2.5967 -1.2312 -0.3258
 6827TIP3   OH246591   7.678   7.260   6.634  0.3820 -0.2622  0.0990
 6827TIP3    H146592   7.765   7.298   6.647  0.7411 -1.4464  1.3547
 6827TIP3    H246593   7.651   7.292   6.548  1.7524  0.6951 -0.0089
 6828TIP3   OH246594   6.047   6.974   7.433  0.0486  0.3449 -0.1334
 6828TIP3    H146595   5.977   6.976   7.498  0.7729  0.1638  0.6835
 6828TIP3    H246596   6.077   7.065   7.428  0.3175  0.2768  0.1671
 6829TIP3   OH246597   6.666   4.995   7.771 -0.1553  0.0450  0.1076
 6829TIP3    H146598   6.670   4.907   7.733 -0.6787 -0.7882  1.8603
 6829TIP3    H246599   6.684   5.054   7.698 -1.1202 -1.4548 -1.4222
 6830TIP3   OH246600   5.263   0.129   2.325  0.0205 -0.5476  0.3657
 6830TIP3    H146601   5.195   0.170   2.378  1.9874  1.8566  1.2119
 6830TIP3    H246602   5.302   0.063   2.382  1.9601  1.8537  2.0150
 6831TIP3   OH246603   3.379   7.764   0.718  0.6097 -0.3990  0.1669
 6831TIP3    H146604   3.451   7.824   0.739  0.6771 -0.0026 -1.1506
 6831TIP3    H246605   3.325   7.812   0.656 -1.2914 -0.3579  1.7392
 6832TIP3   OH246606   3.601   0.312   7.915 -0.3180 -0.6192 -0.4703
 6832TIP3    H146607   3.651   0.376   7.967 -0.2434  0.8377 -2.2233
 6832TIP3    H246608   3.612   0.229   7.962 -1.4335  0.8206  2.5958
 6833TIP3   OH246609   5.356   3.772   6.443 -0.0442  0.7513 -0.3740
 6833TIP3    H146610   5.307   3.848   6.476 -0.3871  0.8164 -1.0208
 6833TIP3    H246611   5.367   3.716   6.520  0.2131  1.4485  0.1141
 6834TIP3   OH246612   1.775   0.467   7.755  0.4816  0.3393 -0.2919
 6834TIP3    H146613   1.784   0.561   7.771  0.9053  0.3894 -0.7907
 6834TIP3    H246614   1.752   0.431   7.840  2.8555  0.5797  0.5249
 6835TIP3   OH246615   2.472   7.156   6.146  0.0764  0.4236 -0.1953
 6835TIP3    H146616   2.456   7.250   6.158 -1.4725 -0.1069  3.1454
 6835TIP3    H246617   2.556   7.140   6.188  0.1054  0.2192 -0.3287
 6836TIP3   OH246618   7.375   3.913   1.435  0.2752  0.1600  0.7523
 6836TIP3    H146619   7.420   3.986   1.394 -1.1889  1.6282  1.6433
 6836TIP3    H246620   7.428   3.892   1.513  2.0167 -1.3933 -0.7552
 6837TIP3   OH246621   6.199   7.646   0.992 -0.8119 -0.4294  0.7950
 6837TIP3    H146622   6.239   7.591   1.060 -1.6724 -2.5257 -0.2975
 6837TIP3    H246623   6.251   7.627   0.913 -0.9687  0.5572  0.4494
 6838TIP3   OH246624   1.531   2.691   7.209 -0.2930  0.0851 -0.2818
 6838TIP3    H146625   1.458   2.649   7.255 -0.4408 -0.2817 -0.8424
 6838TIP3    H246626   1.539   2.777   7.251 -0.5074 -0.1889  0.3359
 6839TIP3   OH246627   2.520   6.227   1.167 -0.0559 -0.0324 -0.3572
 6839TIP3    H146628   2.513   6.310   1.214  1.0018 -0.4110  0.4980
 6839TIP3    H246629   2.464   6.166   1.215 -0.4071  0.0312 -0.6732
 6840TIP3   OH246630   4.033   2.923   7.294  0.1735  0.2125 -0.5109
 6840TIP3    H146631   4.097   2.912   7.365 -1.0095  2.0324  0.9579
 6840TIP3    H246632   3.973   2.849   7.304 -0.1495  0.5985  0.6339
 6841TIP3   OH246633   5.171   2.694   1.330 -0.7919  0.4155 -0.2991
 6841TIP3    H146634   5.105   2.711   1.263  0.8612  0.9226 -1.8945
 6841TIP3    H246635   5.172   2.773   1.384 -0.6006  0.9668 -1.0900
 6842TIP3   OH246636   0.609   4.045   1.540  0.0078 -0.0904 -0.2150
 6842TIP3    H146637   0.648   4.118   1.586 -0.2988 -0.0274 -0.0518
 6842TIP3    H246638   0.632   3.968   1.592 -1.5224  0.1181  0.8587
 6843TIP3   OH246639   7.739   6.456   7.263  0.3335 -0.1824 -0.5748
 6843TIP3    H146640   7.790   6.499   7.194  0.4957 -1.3720 -1.2291
 6843TIP3    H246641   7.666   6.516   7.280  0.4634  0.2828 -1.5739
 6844TIP3   OH246642   6.084   3.043   0.720 -0.7282  0.0294  0.2771
 6844TIP3    H146643   6.002   3.008   0.757 -1.3127  0.3136 -0.6991
 6844TIP3    H246644   6.114   2.974   0.660  0.1701 -0.3973  1.1836
 6845TIP3   OH246645   7.249   5.767   1.284  0.2195 -1.1796  0.0375
 6845TIP3    H146646   7.192   5.715   1.341  0.3483 -1.4727 -0.0947
 6845TIP3    H246647   7.209   5.759   1.197 -0.2839 -0.2868  0.1723
 6846TIP3   OH246648   6.003   4.184   6.064  0.6008 -0.3411  0.3178
 6846TIP3    H146649   5.955   4.122   6.010  1.3075 -0.6888  0.0740
 6846TIP3    H246650   6.095   4.169   6.042  0.7915  0.7102  0.3449
 6847TIP3   OH246651   7.874   1.973   1.579  0.0118  0.8182 -0.3997
 6847TIP3    H146652   7.835   2.060   1.590  2.8672  2.2146 -0.2757
 6847TIP3    H246653   7.955   1.976   1.630 -0.3427 -2.3899  0.5966
 6848TIP3   OH246654   6.172   6.639   1.264  0.1323  0.5287 -0.6043
 6848TIP3    H146655   6.222   6.563   1.293 -0.6016  0.4515  0.5122
 6848TIP3    H246656   6.096   6.601   1.219 -0.4671  0.5767  0.3465
 6849TIP3   OH246657   0.151   2.985   7.011 -0.3534  0.1321 -0.4303
 6849TIP3    H146658   0.098   2.912   7.044  1.3185 -1.4539 -1.0853
 6849TIP3    H246659   0.095   3.062   7.021 -2.0948 -1.1924  0.5222
 6850TIP3   OH246660   1.826   4.329   7.916 -0.2888 -0.5045 -0.0337
 6850TIP3    H146661   1.792   4.279   7.842 -2.1243 -0.1462  0.5181
 6850TIP3    H246662   1.835   4.419   7.882 -1.4985 -0.2578  0.2438
 6851TIP3   OH246663   6.292   0.256   1.957 -0.6062 -0.5624  0.2744
 6851TIP3    H146664   6.342   0.187   2.002 -0.9992 -2.0130 -1.4063
 6851TIP3    H246665   6.297   0.233   1.864 -2.1705  0.7549 -0.1842
 6852TIP3   OH246666   3.900   0.734   7.374 -0.1892 -0.7912 -0.0572
 6852TIP3    H146667   3.987   0.758   7.343 -0.7031  0.9799 -0.1891
 6852TIP3    H246668   3.883   0.649   7.333  1.4041 -1.0963 -0.1387
 6853TIP3   OH246669   2.115   0.223   7.386 -0.4660 -0.1082 -0.2074
 6853TIP3    H146670   2.099   0.229   7.292  0.0401  1.5066 -0.2238
 6853TIP3    H246671   2.037   0.261   7.426 -0.3224 -0.0213 -0.0084
 6854TIP3   OH246672   6.650   2.591   0.675 -0.6405 -0.8519  0.5198
 6854TIP3    H146673   6.624   2.505   0.708 -0.6633 -1.5067 -1.1214
 6854TIP3    H246674   6.572   2.624   0.631 -1.0951  0.6820  2.3195
 6855TIP3   OH246675   2.052   1.822   7.331  0.1422 -0.4851  0.0085
 6855TIP3    H146676   2.120   1.806   7.396  1.2200  0.2018 -0.9108
 6855TIP3    H246677   2.052   1.916   7.319 -0.2251 -0.5828 -0.8055
 6856TIP3   OH246678   1.192   4.852   6.646 -0.0850  0.3315  0.4936
 6856TIP3    H146679   1.106   4.869   6.684  0.5396  1.0024  1.6587
 6856TIP3    H246680   1.189   4.759   6.622 -1.6540  0.6928 -0.9327
 6857TIP3   OH246681   3.497   1.381   0.411 -0.1572  0.1660 -0.0738
 6857TIP3    H146682   3.533   1.300   0.446 -1.7376  0.4283  2.3709
 6857TIP3    H246683   3.408   1.385   0.446 -0.3866  2.5693 -0.7568
 6858TIP3   OH246684   4.295   1.163   1.246 -0.4701  0.2107 -0.2303
 6858TIP3    H146685   4.260   1.233   1.301 -1.5312 -0.1407 -0.4401
 6858TIP3    H246686   4.276   1.192   1.156 -0.4542 -0.1070 -0.3367
 6859TIP3   OH246687   3.908   0.993   1.168 -0.4616  0.1806 -0.4435
 6859TIP3    H146688   3.885   1.048   1.242  0.0324  2.1760 -1.6852
 6859TIP3    H246689   4.000   0.971   1.182 -0.9047 -1.2233  0.5398
 6860TIP3   OH246690   4.426   2.755   7.240  0.2780 -0.5878 -0.2232
 6860TIP3    H146691   4.339   2.723   7.218 -0.0091  0.2637 -0.3587
 6860TIP3    H246692   4.451   2.706   7.319 -0.3328 -0.8041 -0.1637
 6861TIP3   OH246693   4.005   2.446   1.321 -0.3852  0.2590 -0.0599
 6861TIP3    H146694   4.098   2.422   1.313 -0.7152 -0.9161 -0.5743
 6861TIP3    H246695   3.967   2.377   1.375 -1.1920  0.0942 -0.8218
 6862TIP3   OH246696   1.316   7.792   5.968  0.0257  0.0106  0.2067
 6862TIP3    H146697   1.331   7.775   6.061  0.3458 -1.8191 -0.1390
 6862TIP3    H246698   1.262   7.871   5.967  0.1539  0.1688  1.9335
 6863TIP3   OH246699   5.647   6.449   0.776  0.2986 -0.2621 -0.5955
 6863TIP3    H146700   5.563   6.418   0.744 -0.2254 -0.9132  1.3100
 6863TIP3    H246701   5.667   6.393   0.851  0.9177  1.8354  0.8971
 6864TIP3   OH246702   6.492   6.185   2.401 -0.0294  0.0923 -0.0549
 6864TIP3    H146703   6.465   6.195   2.309 -0.3205 -0.2049 -0.0047
 6864TIP3    H246704   6.481   6.091   2.418  0.5830  0.0477  0.1111
 6865TIP3   OH246705   0.842   3.844   6.368 -0.5324  0.1342 -0.4347
 6865TIP3    H146706   0.870   3.789   6.442 -0.2077  0.8441 -0.0153
 6865TIP3    H246707   0.843   3.785   6.293 -0.3939 -0.4866  0.0416
 6866TIP3   OH246708   4.681   4.272   5.562  0.6813  0.5193 -0.6471
 6866TIP3    H146709   4.718   4.191   5.526 -0.2318  0.5842 -1.8147
 6866TIP3    H246710   4.755   4.332   5.569  1.3166 -0.3220 -0.0598
 6867TIP3   OH246711   7.864   1.516   6.186  0.2222 -0.4113 -0.0701
 6867TIP3    H146712   7.782   1.536   6.141 -0.2570 -1.8037  0.1255
 6867TIP3    H246713   7.885   1.595   6.234 -0.7708  0.1190 -0.4789
 6868TIP3   OH246714   6.831   2.197   7.820  0.1038  0.0893  0.1586
 6868TIP3    H146715   6.894   2.252   7.773 -0.6970 -0.0618 -1.1554
 6868TIP3    H246716   6.884   2.141   7.876  1.0913  0.3974 -0.4505
 6869TIP3   OH246717   1.540   7.794   6.315  0.4472 -0.1918 -0.6008
 6869TIP3    H146718   1.513   7.885   6.329  0.2423 -0.3580  0.0849
 6869TIP3    H246719   1.634   7.799   6.299  0.6231  0.0399  0.4631
 6870TIP3   OH246720   3.796   7.371   6.135 -0.0622 -0.2310  0.0055
 6870TIP3    H146721   3.819   7.349   6.045 -0.9041  0.1386 -0.3137
 6870TIP3    H246722   3.873   7.347   6.187  0.1710 -1.0954 -0.7195
 6871TIP3   OH246723   5.582   3.135   7.019  0.0529  0.5305  0.1833
 6871TIP3    H146724   5.629   3.197   6.964 -0.3967  0.9659  0.2878
 6871TIP3    H246725   5.541   3.188   7.087 -0.2743  0.1152  0.3189
 6872TIP3   OH246726   7.489   2.637   6.530 -0.0633  0.4033 -0.6423
 6872TIP3    H146727   7.549   2.648   6.456  1.1294 -2.3413 -0.2013
 6872TIP3    H246728   7.536   2.579   6.590 -1.8911  0.8023  1.2761
 6873TIP3   OH246729   6.197   5.666   6.157  0.4287 -0.5026  0.1390
 6873TIP3    H146730   6.108   5.657   6.190 -0.1118 -0.0774 -1.1258
 6873TIP3    H246731   6.214   5.582   6.113  0.9807 -0.9012  1.0771
 6874TIP3   OH246732   0.106   1.806   6.993  0.0264 -0.7710 -0.1630
 6874TIP3    H146733   0.191   1.839   7.023  0.5779 -1.3143 -1.0924
 6874TIP3    H246734   0.071   1.757   7.067 -1.4579  2.8997  1.8423
 6875TIP3   OH246735   5.344   1.196   6.307 -0.1058  0.2957  0.1227
 6875TIP3    H146736   5.357   1.123   6.368  1.3433 -1.0354 -1.6786
 6875TIP3    H246737   5.419   1.254   6.321 -0.2329  0.4413  0.2061
 6876TIP3   OH246738   5.800   7.504   6.021 -0.1276 -0.7934 -0.0538
 6876TIP3    H146739   5.813   7.597   6.003 -0.3051 -0.9471 -1.0525
 6876TIP3    H246740   5.866   7.460   5.968  0.0764 -1.2341  0.5603
 6877TIP3   OH246741   4.685   2.905   0.894  0.2927 -0.3553 -0.8121
 6877TIP3    H146742   4.605   2.944   0.930 -0.6932 -0.8783 -2.3585
 6877TIP3    H246743   4.711   2.964   0.824  0.6082 -0.7820 -1.0615
 6878TIP3   OH246744   2.004   1.292   1.489 -0.5489 -0.3209 -0.2724
 6878TIP3    H146745   2.020   1.251   1.404 -1.8584 -0.5169 -0.4368
 6878TIP3    H246746   1.945   1.232   1.534 -0.8334  0.3770  0.3000
 6879TIP3   OH246747   7.684   4.334   7.504  0.2012  0.3203 -0.0331
 6879TIP3    H146748   7.656   4.319   7.414  0.3665 -1.4645  0.1726
 6879TIP3    H246749   7.619   4.395   7.540 -0.0110  0.8463 -1.2588
 6880TIP3   OH246750   0.760   2.782   5.941 -0.0194  0.3285 -0.4951
 6880TIP3    H146751   0.788   2.691   5.932  0.7668  0.6068 -1.0139
 6880TIP3    H246752   0.681   2.778   5.995  0.2847 -0.6115 -0.1008
 6881TIP3   OH246753   1.604   1.726   0.545 -0.8329  0.3258 -0.2009
 6881TIP3    H146754   1.532   1.663   0.553 -1.2663  0.8662  0.2307
 6881TIP3    H246755   1.600   1.755   0.454  0.6870 -1.7978 -1.0271
 6882TIP3   OH246756   0.578   4.145   0.406  0.1907 -0.3338  0.7440
 6882TIP3    H146757   0.644   4.183   0.465  0.3481  2.3952 -0.9808
 6882TIP3    H246758   0.613   4.060   0.382  0.9608 -0.7785  3.1477
 6883TIP3   OH246759   6.530   6.656   2.446 -0.1975  0.2885 -0.6319
 6883TIP3    H146760   6.576   6.725   2.397 -1.3130  0.8123 -0.9607
 6883TIP3    H246761   6.535   6.685   2.537  0.6328  0.0365 -0.5875
 6884TIP3   OH246762   3.854   2.150   0.053 -0.7009  0.0186  0.0018
 6884TIP3    H146763   3.889   2.099   0.125 -0.1511 -0.0834 -0.3349
 6884TIP3    H246764   3.914   2.225   0.045 -1.2198  0.4599  0.1771
 6885TIP3   OH246765   2.339   3.905   0.959 -0.1664 -0.1077  0.1815
 6885TIP3    H146766   2.321   3.863   1.043  0.9602  1.7128  1.3989
 6885TIP3    H246767   2.255   3.901   0.913 -0.3874 -2.6294  0.6327
 6886TIP3   OH246768   1.286   1.097   7.388 -0.6625  0.0138 -0.0923
 6886TIP3    H146769   1.358   1.073   7.330 -0.4385 -0.3991  0.3422
 6886TIP3    H246770   1.329   1.123   7.470 -0.9775  0.4848 -0.0717
 6887TIP3   OH246771   2.507   5.772   0.112 -0.5494 -0.1732  0.3354
 6887TIP3    H146772   2.479   5.853   0.155 -3.9936 -1.4716  0.8026
 6887TIP3    H246773   2.564   5.729   0.175 -2.1297 -0.0703  1.8817
 6888TIP3   OH246774   6.967   4.701   0.340 -0.0086  0.1632  0.5126
 6888TIP3    H146775   6.956   4.730   0.430  0.5001  0.5350  0.4580
 6888TIP3    H246776   7.050   4.654   0.340  0.6613  1.3036 -0.0304
 6889TIP3   OH246777   3.869   0.130   7.092 -0.6854 -0.1501 -0.0714
 6889TIP3    H146778   3.810   0.169   7.028  0.1761  2.7441  0.7355
 6889TIP3    H246779   3.812   0.098   7.162 -1.4628 -0.8069 -0.9869
 6890TIP3   OH246780   5.094   4.184   6.293  0.1722 -0.5982 -0.1752
 6890TIP3    H146781   5.149   4.116   6.331  0.7620  0.0794  0.2143
 6890TIP3    H246782   5.052   4.226   6.369 -0.4777 -0.7747 -0.4343
 6891TIP3   OH246783   4.723   6.565   7.584  0.1362  0.7133  0.4463
 6891TIP3    H146784   4.807   6.519   7.577 -0.8361 -1.5513  2.2262
 6891TIP3    H246785   4.742   6.641   7.640  1.0066  0.2199  0.8384
 6892TIP3   OH246786   4.792   5.548   6.899  0.3257  0.1833  0.4394
 6892TIP3    H146787   4.795   5.454   6.916  1.8070  0.4484  1.9953
 6892TIP3    H246788   4.709   5.577   6.937 -0.9466 -0.7026 -1.5477
 6893TIP3   OH246789   3.365   0.492   7.870 -0.4275 -0.0176  0.2768
 6893TIP3    H146790   3.333   0.481   7.959  1.9186 -0.4410  1.1359
 6893TIP3    H246791   3.441   0.434   7.864  1.1227  1.9873 -1.1147
 6894TIP3   OH246792   3.557   6.675   1.146  0.1563  0.0155 -0.1444
 6894TIP3    H146793   3.568   6.634   1.232 -1.5190  2.2968  1.2824
 6894TIP3    H246794   3.645   6.674   1.108  0.6967 -2.2662  0.9567
 6895TIP3   OH246795   6.504   0.826   1.281 -0.2070 -0.5932  0.4663
 6895TIP3    H146796   6.474   0.903   1.330 -0.7242 -1.3413  1.3466
 6895TIP3    H246797   6.444   0.757   1.306 -1.6572 -0.5998 -2.6781
 6896TIP3   OH246798   2.918   5.994   7.155 -0.2533  0.7246  0.1307
 6896TIP3    H146799   2.885   6.001   7.066  0.6627  0.3757 -0.2479
 6896TIP3    H246800   2.956   5.906   7.160  1.4783  1.4531  0.2388
 6897TIP3   OH246801   6.250   0.173   6.333  0.3722  0.0329 -0.5335
 6897TIP3    H146802   6.205   0.088   6.340 -1.4592  0.9031 -0.9758
 6897TIP3    H246803   6.239   0.198   6.241  0.6284  0.8825 -0.3384
 6898TIP3   OH246804   0.036   5.425   0.012  0.3023  0.0260  1.1344
 6898TIP3    H146805  -0.032   5.397  -0.049  1.3956  3.7559 -2.2257
 6898TIP3    H246806   0.117   5.390  -0.024  0.8449  1.1319  1.2586
 6899TIP3   OH246807   1.492   1.153   6.212  0.1519  0.2808  0.3439
 6899TIP3    H146808   1.402   1.168   6.241 -0.0220  0.4956 -0.3018
 6899TIP3    H246809   1.530   1.100   6.282 -0.1696  1.0432  1.1154
 6900TIP3   OH246810   5.702   7.983   1.439  0.6323  0.1579  0.3860
 6900TIP3    H146811   5.724   7.894   1.468 -0.0005 -0.9439 -2.1712
 6900TIP3    H246812   5.778   8.010   1.387 -0.1106  0.0970 -0.7843
 6901TIP3   OH246813   1.958   3.524   7.933 -0.0765 -0.0665 -0.4717
 6901TIP3    H146814   2.025   3.467   7.897 -1.0919 -0.9255 -1.0505
 6901TIP3    H246815   1.924   3.478   8.010  0.1333  0.4555 -0.0590
 6902TIP3   OH246816   3.192   5.789   0.973 -0.1412 -0.0395  0.5828
 6902TIP3    H146817   3.198   5.756   1.062 -0.5039  2.4223  1.5901
 6902TIP3    H246818   3.098   5.804   0.959 -0.2264 -1.4204 -0.6759
 6903TIP3   OH246819   0.114   5.766   6.144  0.5726 -0.3067 -0.0217
 6903TIP3    H146820   0.100   5.860   6.131 -0.4071 -0.5945 -1.2907
 6903TIP3    H246821   0.029   5.727   6.126  1.4099 -1.5840 -1.4299
 6904TIP3   OH246822   6.344   4.882   1.699 -0.1485  0.1139  0.2499
 6904TIP3    H146823   6.408   4.954   1.696  0.2286 -0.1968  0.6005
 6904TIP3    H246824   6.267   4.920   1.740  0.5168  0.0001  1.7059
 6905TIP3   OH246825   4.327   3.394   0.009  0.4947  0.3512 -0.0570
 6905TIP3    H146826   4.299   3.439  -0.071 -0.7164 -0.5938 -0.2055
 6905TIP3    H246827   4.395   3.333  -0.021 -2.3346 -2.6012 -1.1886
 6906TIP3   OH246828   0.054   4.494   1.992 -0.2426  0.0335  0.1187
 6906TIP3    H146829  -0.036   4.474   1.967  0.1100  1.8144 -2.9826
 6906TIP3    H246830   0.086   4.411   2.029 -2.6494 -1.1046 -0.0851
 6907TIP3   OH246831   6.964   2.502   1.398  0.8247 -0.8053 -0.5492
 6907TIP3    H146832   7.054   2.470   1.406  1.2385  0.6058  1.0749
 6907TIP3    H246833   6.971   2.596   1.416 -0.8709 -0.5104 -1.2386
 6908TIP3   OH246834   0.211   1.939   1.028  0.0853  0.2765  0.1544
 6908TIP3    H146835   0.153   1.900   1.092  0.5181  0.7886  0.8782
 6908TIP3    H246836   0.240   2.021   1.069  0.1363  0.7551 -0.8139
 6909TIP3   OH246837   2.496   2.561   7.256 -0.4571  0.2838  0.1829
 6909TIP3    H146838   2.409   2.552   7.294  0.2522 -0.2143  1.7861
 6909TIP3    H246839   2.494   2.647   7.212 -1.5126  0.6158  0.8366
 6910TIP3   OH246840   1.965   6.207   6.922 -0.1942 -0.4044 -0.2768
 6910TIP3    H146841   1.878   6.167   6.917 -0.2653 -0.2859  0.0071
 6910TIP3    H246842   1.991   6.197   7.013  0.3848 -1.0498 -0.5116
 6911TIP3   OH246843   7.103   3.542   6.000  0.0989  0.2841 -0.1432
 6911TIP3    H146844   7.074   3.479   5.934  0.7989  0.0519 -0.2298
 6911TIP3    H246845   7.029   3.602   6.009 -0.0042  0.3341 -1.1558
 6912TIP3   OH246846   6.520   6.349   6.058 -0.2074  0.5714  0.2115
 6912TIP3    H146847   6.540   6.391   5.975 -1.4155 -0.2476 -0.5285
 6912TIP3    H246848   6.503   6.257   6.036 -3.7865  0.9406  0.7646
 6913TIP3   OH246849   2.455   3.563   6.549  0.2656 -0.2257 -0.3140
 6913TIP3    H146850   2.512   3.568   6.473 -1.9802  0.3087 -2.0585
 6913TIP3    H246851   2.446   3.469   6.566  1.8968 -0.3162  0.2602
 6914TIP3   OH246852   4.382   0.868   0.409 -0.0135 -0.3693 -0.1722
 6914TIP3    H146853   4.329   0.875   0.329 -0.2832  1.0523  0.1038
 6914TIP3    H246854   4.341   0.931   0.469  0.9404 -0.5284  0.6488
 6915TIP3   OH246855   3.952   7.922   6.469 -0.2174 -1.0335  0.2135
 6915TIP3    H146856   4.047   7.933   6.477 -0.2017 -0.2618 -0.8478
 6915TIP3    H246857   3.924   7.891   6.556  1.0145 -1.4055  0.4907
 6916TIP3   OH246858   5.483   2.381   6.652  0.3545 -0.0266  0.2239
 6916TIP3    H146859   5.394   2.387   6.685  0.3372 -1.0273  0.4099
 6916TIP3    H246860   5.479   2.417   6.563 -0.4345 -0.9005 -0.1072
 6917TIP3   OH246861   3.968   6.747   7.065 -0.0604 -0.0447 -0.0784
 6917TIP3    H146862   4.018   6.696   7.001 -0.4034  3.0868 -3.1828
 6917TIP3    H246863   4.021   6.744   7.145  1.0705 -3.0998 -0.8032
 6918TIP3   OH246864   4.548   6.456   7.925  0.2386 -0.6294 -0.5428
 6918TIP3    H146865   4.641   6.478   7.922  0.3604 -0.9695  0.3728
 6918TIP3    H246866   4.504   6.540   7.938  0.4150 -0.4832 -0.8585
 6919TIP3   OH246867   2.097   4.257   6.019 -0.5070  0.2946 -0.3118
 6919TIP3    H146868   2.033   4.322   5.990 -1.1380 -0.8073 -1.5071
 6919TIP3    H246869   2.081   4.181   5.963  0.5554 -0.7115  0.6911
 6920TIP3   OH246870   0.014   6.134   7.908  0.2421  0.7008 -0.2490
 6920TIP3    H146871  -0.003   6.217   7.863  0.6096  1.4178  0.9059
 6920TIP3    H246872  -0.049   6.131   7.979 -0.4292 -0.5004 -0.8573
 6921TIP3   OH246873   6.202   2.525   6.403  0.0976 -0.4682 -0.7829
 6921TIP3    H146874   6.233   2.613   6.384 -0.6234  0.0870  0.4861
 6921TIP3    H246875   6.278   2.468   6.386  0.8621  0.5032 -0.6942
 6922TIP3   OH246876   2.813   0.874   0.148 -0.2111  0.0635  0.0639
 6922TIP3    H146877   2.747   0.875   0.079 -0.0160  1.0899 -0.1265
 6922TIP3    H246878   2.890   0.833   0.107  0.4569  2.1383 -0.8959
 6923TIP3   OH246879   5.748   6.859   2.206  0.2932 -0.6139  0.3108
 6923TIP3    H146880   5.727   6.884   2.115  0.9761 -1.5721 -0.1233
 6923TIP3    H246881   5.791   6.936   2.242  1.8102 -0.9000 -0.8129
 6924TIP3   OH246882   2.163   3.630   1.047  0.7345  0.5192  0.6039
 6924TIP3    H146883   2.106   3.697   1.010  2.5009  2.7761  1.7167
 6924TIP3    H246884   2.214   3.598   0.972  1.2481  1.8876  0.3392
 6925TIP3   OH246885   0.060   4.603   1.267 -0.0802 -0.2054  0.6363
 6925TIP3    H146886   0.021   4.527   1.310 -0.1810 -0.2975  0.3888
 6925TIP3    H246887   0.088   4.569   1.182  1.7585 -0.4819  1.3065
 6926TIP3   OH246888   0.636   6.355   1.722 -0.1630  0.2026 -0.4142
 6926TIP3    H146889   0.621   6.417   1.650  0.0011  0.3210 -0.3476
 6926TIP3    H246890   0.730   6.363   1.740  0.1226 -0.9843 -1.2563
 6927TIP3   OH246891   2.414   3.130   0.740 -0.2751  0.3140 -0.4078
 6927TIP3    H146892   2.341   3.192   0.732 -1.8026 -1.5141 -1.7497
 6927TIP3    H246893   2.413   3.082   0.656  2.2254 -0.0598 -0.2820
 6928TIP3   OH246894   0.821   0.665   6.745  0.0478 -0.0488 -0.1254
 6928TIP3    H146895   0.737   0.709   6.757 -0.7910 -2.1113  2.5546
 6928TIP3    H246896   0.876   0.699   6.815 -0.3964 -2.4691  1.5629
 6929TIP3   OH246897   6.384   6.181   0.665 -0.3363  0.4790  0.0178
 6929TIP3    H146898   6.458   6.124   0.681 -1.0482 -0.0176  1.7818
 6929TIP3    H246899   6.374   6.231   0.746  0.8717  3.9192 -1.7384
 6930TIP3   OH246900   1.417   3.271   6.822  0.0397 -0.6696  0.1597
 6930TIP3    H146901   1.388   3.354   6.861 -2.5038 -1.1684 -0.5089
 6930TIP3    H246902   1.354   3.206   6.853  1.0726 -2.0833 -0.5771
 6931TIP3   OH246903   2.109   2.650   5.897  0.1285  0.1812  0.5953
 6931TIP3    H146904   2.195   2.692   5.907 -1.1376  4.1976 -2.6548
 6931TIP3    H246905   2.054   2.692   5.963  0.0399 -0.4950  0.9635
 6932TIP3   OH246906   3.064   2.287   1.730  0.6180 -1.0359  0.1737
 6932TIP3    H146907   3.046   2.376   1.761  2.8021 -0.1062 -1.0109
 6932TIP3    H246908   2.980   2.241   1.740 -0.8776  1.4154 -0.1676
 6933TIP3   OH246909   6.077   6.263   6.849  0.0035 -0.4393 -0.1437
 6933TIP3    H146910   6.102   6.347   6.887 -0.8506  0.3527 -1.2646
 6933TIP3    H246911   6.085   6.201   6.921  1.1231  0.5065  0.5777
 6934TIP3   OH246912   1.612   5.270   0.254  0.4544  0.1306 -0.0290
 6934TIP3    H146913   1.590   5.181   0.226  0.7846 -0.0810  0.3769
 6934TIP3    H246914   1.707   5.276   0.240  0.5209  0.2295  0.4621
 6935TIP3   OH246915   7.731   2.538   7.516  0.4476 -0.0928  0.2286
 6935TIP3    H146916   7.688   2.608   7.467  0.5827  0.8382  1.3929
 6935TIP3    H246917   7.695   2.544   7.604  0.1644 -1.7779  0.2697
 6936TIP3   OH246918   5.591   6.323   0.147 -0.2580  0.3742 -0.1687
 6936TIP3    H146919   5.612   6.416   0.160  1.8580  0.1150 -1.3474
 6936TIP3    H246920   5.559   6.294   0.233 -1.3630  2.2607  0.1150
 6937TIP3   OH246921   6.267   1.428   0.423 -0.5513 -0.0061  0.0243
 6937TIP3    H146922   6.356   1.412   0.456 -1.0776  0.4942  1.7437
 6937TIP3    H246923   6.270   1.519   0.393 -0.1469 -0.3863 -1.1971
 6938TIP3   OH246924   2.938   4.113   5.758 -0.1606  0.3359  0.1226
 6938TIP3    H146925   2.873   4.142   5.822 -1.0292 -3.2332  1.0880
 6938TIP3    H246926   2.960   4.024   5.785  1.8349 -0.1845 -2.7804
 6939TIP3   OH246927   0.162   7.144   5.877  0.2305 -0.0573  1.2922
 6939TIP3    H146928   0.222   7.198   5.826  1.3546 -1.8957  0.5728
 6939TIP3    H246929   0.141   7.070   5.820  0.5028 -1.5091  2.9750
 6940TIP3   OH246930   0.751   3.544   6.971 -0.3542  0.5988 -0.3621
 6940TIP3    H146931   0.782   3.500   6.892 -4.4316 -0.6596 -1.5078
 6940TIP3    H246932   0.754   3.637   6.950  2.5277  0.6266 -0.2637
 6941TIP3   OH246933   2.119   3.737   1.748 -0.8223 -0.5960 -0.3998
 6941TIP3    H146934   2.115   3.777   1.835 -1.5948 -0.7339 -0.3643
 6941TIP3    H246935   2.037   3.761   1.706 -1.6835 -2.7640 -0.0851
 6942TIP3   OH246936   6.984   3.689   1.024 -0.3332 -0.2995  0.0537
 6942TIP3    H146937   7.050   3.757   1.008  0.4045 -1.5651 -3.0884
 6942TIP3    H246938   6.907   3.717   0.975  0.4078 -2.1854 -2.3981
 6943TIP3   OH246939   3.022   3.025   1.400  0.2467 -0.7652 -0.1149
 6943TIP3    H146940   2.997   3.086   1.330  1.2031 -0.3011 -0.0759
 6943TIP3    H246941   3.111   2.998   1.376  1.2919  0.7063  1.7641
 6944TIP3   OH246942   7.590   6.147   1.008 -0.7303  0.2523  0.6099
 6944TIP3    H146943   7.582   6.138   1.103  1.4300  2.4438  1.0948
 6944TIP3    H246944   7.684   6.137   0.991 -0.9893  0.6066 -1.2180
 6945TIP3   OH246945   2.265   6.385   1.486 -0.1384  0.1076 -0.6906
 6945TIP3    H146946   2.192   6.445   1.501 -0.4472 -0.1816 -1.0150
 6945TIP3    H246947   2.276   6.339   1.569 -0.8075 -0.3670 -0.8579
 6946TIP3   OH246948   1.076   0.473   1.374 -0.0401 -0.6104 -0.1363
 6946TIP3    H146949   1.046   0.410   1.308 -0.5137  0.4259 -0.9519
 6946TIP3    H246950   1.038   0.442   1.456 -1.5701 -0.5350 -0.7855
 6947TIP3   OH246951   1.394   7.007   6.913 -0.1983  0.6802  0.3280
 6947TIP3    H146952   1.347   6.925   6.900 -1.8801  1.3959  1.5151
 6947TIP3    H246953   1.406   7.042   6.825 -0.5630 -0.2605 -0.1056
 6948TIP3   OH246954   5.633   3.557   0.980 -0.0414 -0.4026  0.0428
 6948TIP3    H146955   5.700   3.609   0.935  1.9086 -3.5555 -0.9884
 6948TIP3    H246956   5.667   3.546   1.069 -0.3146 -0.2298  0.1732
 6949TIP3   OH246957   0.681   1.235   6.831  0.1964 -0.1558 -0.2857
 6949TIP3    H146958   0.723   1.304   6.780  0.6648 -0.6408 -0.5675
 6949TIP3    H246959   0.615   1.280   6.883  1.6580  0.7818  0.8520
 6950TIP3   OH246960   4.487   4.518   1.052 -0.2527 -0.3419  0.8133
 6950TIP3    H146961   4.451   4.446   1.104 -1.4811  0.0488  0.5567
 6950TIP3    H246962   4.457   4.499   0.963 -0.0456  0.1562  0.6372
 6951TIP3   OH246963   7.293   0.378   7.884  0.0305 -0.7106 -0.0519
 6951TIP3    H146964   7.354   0.441   7.922 -1.3289  0.8727 -0.3636
 6951TIP3    H246965   7.296   0.303   7.943 -2.0569  1.6502  3.4186
 6952TIP3   OH246966   0.782   5.752   1.248 -0.1855 -0.7306 -0.3824
 6952TIP3    H146967   0.696   5.771   1.211 -0.1502 -1.4455 -0.8549
 6952TIP3    H246968   0.776   5.780   1.339  0.2932  2.8777 -1.2821
 6953TIP3   OH246969   7.985   3.437   1.672 -0.1639 -0.6113 -0.9278
 6953TIP3    H146970   8.015   3.413   1.585  2.4553  1.4450 -0.7303
 6953TIP3    H246971   8.062   3.427   1.728 -0.8711  1.1656  0.4687
 6954TIP3   OH246972   6.938   4.783   2.117 -0.1681 -0.1751  0.2115
 6954TIP3    H146973   7.020   4.809   2.159 -1.0997  1.8516  0.8992
 6954TIP3    H246974   6.870   4.835   2.162 -1.5708 -0.1680 -1.7923
 6955TIP3   OH246975   1.472   3.121   1.678 -0.4520  0.3030  0.3431
 6955TIP3    H146976   1.562   3.089   1.675 -1.5241 -3.0539 -1.4403
 6955TIP3    H246977   1.427   3.061   1.738 -1.6293  1.6209  0.8369
 6956TIP3   OH246978   2.796   7.229   0.452  0.4083  0.1662  0.4319
 6956TIP3    H146979   2.820   7.198   0.539  0.7069 -0.5666  0.1026
 6956TIP3    H246980   2.818   7.322   0.452  2.5425 -0.2944  0.4059
 6957TIP3   OH246981   1.548   3.403   1.350 -0.0907  0.3344  0.3923
 6957TIP3    H146982   1.499   3.469   1.399  1.1180  0.8386  0.9544
 6957TIP3    H246983   1.638   3.412   1.380  1.1842  2.0786 -3.3565
 6958TIP3   OH246984   2.966   7.206   7.174  0.2919  0.1311 -0.4503
 6958TIP3    H146985   2.919   7.187   7.093 -0.5486  2.3698 -0.5481
 6958TIP3    H246986   3.055   7.175   7.157 -0.2787 -1.0230 -1.5513
 6959TIP3   OH246987   2.152   0.656   7.749 -0.3890  0.1409  0.6116
 6959TIP3    H146988   2.073   0.709   7.741  1.5731  3.5561  1.9456
 6959TIP3    H246989   2.208   0.685   7.678  0.0298 -1.7519  0.1010
 6960TIP3   OH246990   0.499   3.071   7.448  0.0873  0.3391  0.2807
 6960TIP3    H146991   0.454   3.105   7.371  0.5671 -0.2072 -0.2607
 6960TIP3    H246992   0.487   3.138   7.515  0.7619  1.4281 -0.6529
 6961TIP3   OH246993   2.350   1.707   7.082 -0.0280  0.3809 -0.1351
 6961TIP3    H146994   2.403   1.636   7.045  1.2691  1.4440 -0.4069
 6961TIP3    H246995   2.368   1.705   7.176  1.8518  1.7314 -0.3985
 6962TIP3   OH246996   6.868   6.055   1.010  0.3662  0.0948 -0.1691
 6962TIP3    H146997   6.800   6.051   0.942  0.1768  0.1110  0.0157
 6962TIP3    H246998   6.911   6.139   0.996  0.8163 -0.2242 -0.7274
 6963TIP3   OH246999   0.300   4.974   1.406 -0.1508 -0.1961 -0.0899
 6963TIP3    H147000   0.212   4.955   1.373 -0.4094 -0.6698  0.8501
 6963TIP3    H247001   0.290   4.979   1.501  0.8369 -0.2566  0.0272
 6964TIP3   OH247002   5.814   2.957   7.726  0.7038 -0.1545 -0.1152
 6964TIP3    H147003   5.811   2.958   7.821  0.0086 -0.6597 -0.1254
 6964TIP3    H247004   5.746   3.018   7.698  1.4821  0.6543 -0.2940
 6965TIP3   OH247005   3.729   6.733   6.340  0.4877 -0.2411 -0.2349
 6965TIP3    H147006   3.682   6.668   6.287  1.2797 -1.2627  0.2714
 6965TIP3    H247007   3.819   6.729   6.308  0.7661 -0.1642  0.5261
 6966TIP3   OH247008   6.317   5.047   1.245 -0.2603 -0.9162 -0.2033
 6966TIP3    H147009   6.347   5.056   1.154  0.7720  2.5945  0.3255
 6966TIP3    H247010   6.398   5.041   1.296 -0.5352  1.7122  0.7198
 6967TIP3   OH247011   0.263   5.801   0.026 -0.4052  0.6314  0.1060
 6967TIP3    H147012   0.184   5.794  -0.028 -0.1468 -0.9558 -0.1298
 6967TIP3    H247013   0.304   5.883  -0.001 -0.8472  0.3972 -1.3611
 6968TIP3   OH247014   3.059   6.286   6.529  0.0324 -0.0710 -0.2931
 6968TIP3    H147015   3.072   6.235   6.449  1.8730  0.4845 -0.3836
 6968TIP3    H247016   3.147   6.296   6.566 -0.4362  1.9727  0.3705
 6969TIP3   OH247017   5.622   2.619   1.400  0.7459  0.5401 -0.5225
 6969TIP3    H147018   5.664   2.670   1.331 -1.2357 -0.5864 -2.6990
 6969TIP3    H247019   5.571   2.682   1.451  1.4966  1.2545 -0.6475
 6970TIP3   OH247020   7.188   2.405   6.615 -0.0468  0.2608 -0.7636
 6970TIP3    H147021   7.161   2.313   6.622  0.6671  0.0525 -0.6283
 6970TIP3    H247022   7.115   2.454   6.651 -0.2144 -0.2886 -0.3340
 6971TIP3   OH247023   0.454   7.819   7.900 -0.1425  0.4465  0.5422
 6971TIP3    H147024   0.380   7.840   7.843 -0.4425  0.2597  0.8573
 6971TIP3    H247025   0.423   7.841   7.988  1.0673  2.8777  0.4494
 6972TIP3   OH247026   7.818   0.089   5.227  0.6140 -0.7728  0.0920
 6972TIP3    H147027   7.740   0.036   5.245  0.6199 -1.6260 -2.0712
 6972TIP3    H247028   7.887   0.025   5.211  0.8922 -0.1161 -1.4533
 6973TIP3   OH247029   0.278   0.852   0.592  0.1082 -0.4315  0.6150
 6973TIP3    H147030   0.309   0.826   0.678 -1.2316  1.2302  1.6596
 6973TIP3    H247031   0.284   0.947   0.592 -1.6008 -0.2838 -0.4307
 6974TIP3   OH247032   2.602   3.528   0.948 -0.5704  0.1690 -0.1672
 6974TIP3    H147033   2.620   3.455   0.888 -0.6498  0.7321 -0.8944
 6974TIP3    H247034   2.508   3.524   0.963 -0.5448  0.0050 -0.0416
 6975TIP3   OH247035   1.066   8.030   6.392 -0.0314 -0.3997 -0.5256
 6975TIP3    H147036   1.062   8.115   6.435 -0.4491 -1.2659  1.2335
 6975TIP3    H247037   1.031   8.046   6.304  1.4646  1.5504 -0.8193
 6976TIP3   OH247038   0.725   2.664   6.344 -0.1138 -0.2369 -0.5495
 6976TIP3    H147039   0.705   2.730   6.411 -0.4352 -1.0822  0.2072
 6976TIP3    H247040   0.687   2.700   6.263  0.9270  1.1434 -0.4622
 6977TIP3   OH247041   2.085   7.828   0.030  0.1080  0.1370 -0.1248
 6977TIP3    H147042   2.025   7.773   0.081 -0.5568 -0.3007 -1.3356
 6977TIP3    H247043   2.080   7.793  -0.059  1.2055  0.9079 -0.5104
 6978TIP3   OH247044   2.938   5.206   0.635  0.4628 -0.2213 -0.0336
 6978TIP3    H147045   3.027   5.235   0.614 -0.0475  0.5051 -1.3506
 6978TIP3    H247046   2.949   5.120   0.676  1.7611 -0.1730 -0.2504
 6979TIP3   OH247047   7.081   0.457   7.431 -0.2405 -0.4239 -0.3845
 6979TIP3    H147048   7.076   0.430   7.339 -0.1385  0.6886 -0.7286
 6979TIP3    H247049   7.172   0.483   7.443 -0.6495  1.1928 -0.5049
 6980TIP3   OH247050   5.129   1.749   1.612 -0.9419 -0.2876 -0.0431
 6980TIP3    H147051   5.148   1.789   1.697  0.0130 -0.3262 -0.2307
 6980TIP3    H247052   5.082   1.817   1.563 -2.0649 -0.4807  0.7210
 6981TIP3   OH247053   5.896   6.208   6.244  0.4317  0.3275 -0.3849
 6981TIP3    H147054   5.946   6.237   6.168 -1.6578  1.9045 -1.2664
 6981TIP3    H247055   5.869   6.119   6.223  2.1858 -0.3032 -0.1805
 6982TIP3   OH247056   3.994   5.606   0.011 -0.6889 -0.0195 -0.1656
 6982TIP3    H147057   3.926   5.544  -0.015 -0.2544 -0.6136  0.1046
 6982TIP3    H247058   4.006   5.662  -0.066 -0.8401 -0.4836 -0.5308
 6983TIP3   OH247059   3.752   6.508   7.906  0.0943  0.4024 -0.3887
 6983TIP3    H147060   3.667   6.548   7.887 -1.9750 -3.7602 -1.0358
 6983TIP3    H247061   3.750   6.492   8.000 -0.3179 -0.5527 -0.5482
 6984TIP3   OH247062   7.236   2.670   5.854 -0.1448  0.1518 -0.1929
 6984TIP3    H147063   7.252   2.764   5.845  0.6387  0.2673  1.8230
 6984TIP3    H247064   7.141   2.662   5.862 -0.1087  1.0452  1.7096
 6985TIP3   OH247065   2.348   7.615   1.400  0.5650 -0.0361 -0.7731
 6985TIP3    H147066   2.255   7.605   1.377  0.1226 -0.1309  0.9422
 6985TIP3    H247067   2.386   7.529   1.380  0.0701 -0.3086 -0.5793
 6986TIP3   OH247068   1.806   4.771   2.076  0.3716  0.6964 -0.0954
 6986TIP3    H147069   1.830   4.722   2.155 -1.0277  1.5857  0.9316
 6986TIP3    H247070   1.875   4.836   2.067  0.6213  0.4965  0.3118
 6987TIP3   OH247071   6.160   4.004   0.381 -0.0649 -0.0583  0.1082
 6987TIP3    H147072   6.185   4.076   0.323  2.7607 -1.5805 -0.7440
 6987TIP3    H247073   6.087   3.961   0.336  0.4843  0.2438 -1.1155
 6988TIP3   OH247074   1.916   3.321   7.229  0.7624  0.1500  0.1529
 6988TIP3    H147075   1.945   3.316   7.320  0.1854 -1.3364  0.2891
 6988TIP3    H247076   1.841   3.381   7.230 -0.3968 -1.2425  1.0176
 6989TIP3   OH247077   6.405   7.472   1.472  0.0531  0.0897  0.2081
 6989TIP3    H147078   6.358   7.514   1.544  0.2087 -0.0915  0.4160
 6989TIP3    H247079   6.439   7.390   1.509  0.0948 -0.0282 -0.0823
 6990TIP3   OH247080   1.489   5.093   6.752 -0.4566 -0.3145  0.1851
 6990TIP3    H147081   1.583   5.113   6.756 -0.5857  0.1927  1.7621
 6990TIP3    H247082   1.485   5.000   6.731  0.4365 -0.5094  0.7947
 6991TIP3   OH247083   3.254   3.413   1.759  0.7032 -0.1926 -0.4439
 6991TIP3    H147084   3.203   3.447   1.832  0.7094  0.1900 -0.6142
 6991TIP3    H247085   3.190   3.393   1.691  0.6590 -0.9225 -0.1935
 6992TIP3   OH247086   5.006   5.703   5.440 -0.2886  0.4885 -0.0260
 6992TIP3    H147087   5.044   5.635   5.385 -1.0369 -1.1477  1.3880
 6992TIP3    H247088   4.930   5.735   5.390  0.3569  0.6767 -0.9155
 6993TIP3   OH247089   7.833   6.106   7.851 -0.4278  0.7411  0.1600
 6993TIP3    H147090   7.782   6.073   7.925 -1.3113  0.8679 -0.3680
 6993TIP3    H247091   7.795   6.192   7.832  0.6584  1.2884  0.3770
 6994TIP3   OH247092   3.565   3.127   5.922 -0.1440 -0.2678  0.7803
 6994TIP3    H147093   3.657   3.105   5.905 -0.3227  0.3073 -1.1584
 6994TIP3    H247094   3.535   3.170   5.842 -1.7800  0.6567  1.8258
 6995TIP3   OH247095   5.117   0.329   0.527 -0.2187  0.3499 -0.1268
 6995TIP3    H147096   5.190   0.386   0.550  2.2899 -2.0865 -1.4869
 6995TIP3    H247097   5.140   0.294   0.441 -3.0742 -0.4900 -0.6639
 6996TIP3   OH247098   4.908   6.455   1.363  0.4288 -0.3508  0.3140
 6996TIP3    H147099   4.943   6.469   1.451 -1.0129  0.2373  0.8351
 6996TIP3    H247100   4.980   6.415   1.315  2.2515  1.9231  0.9454
 6997TIP3   OH247101   5.715   1.512   7.102  0.4135  0.1092 -0.3346
 6997TIP3    H147102   5.766   1.471   7.172 -0.8564 -1.2408 -0.1616
 6997TIP3    H247103   5.781   1.541   7.039  1.4723 -0.3544  0.5165
 6998TIP3   OH247104   6.775   5.629   1.081  0.5566 -0.4794 -0.5566
 6998TIP3    H147105   6.721   5.580   1.019  0.0018 -0.1845 -0.3090
 6998TIP3    H247106   6.836   5.679   1.026 -1.2803  1.4025 -0.9970
 6999TIP3   OH247107   4.982   4.517   6.282  0.4795  0.1225  0.0387
 6999TIP3    H147108   5.015   4.557   6.201 -0.8815  1.6587  0.1942
 6999TIP3    H247109   4.887   4.516   6.272  0.2655  0.5997  1.7262
 7000TIP3   OH247110   0.922   6.359   1.805 -0.1510  0.0676  0.1638
 7000TIP3    H147111   0.938   6.370   1.899 -0.8795  1.2989  0.1583
 7000TIP3    H247112   0.985   6.416   1.762  2.1179 -2.5775 -0.2613
 7001TIP3   OH247113   4.912   2.196   6.868 -0.2879  0.3329  0.1504
 7001TIP3    H147114   4.912   2.292   6.865 -1.2641  0.3756  0.8729
 7001TIP3    H247115   4.977   2.170   6.803  1.0224  1.5005  0.9340
 7002TIP3   OH247116   5.251   7.171   0.977  0.1268  0.0131 -0.0100
 7002TIP3    H147117   5.310   7.170   1.053 -0.1317 -0.1750  0.1923
 7002TIP3    H247118   5.290   7.109   0.916  0.2419  0.0329  0.0424
 7003TIP3   OH247119   4.847   5.880   5.602 -0.1078 -1.2757  0.1194
 7003TIP3    H147120   4.784   5.809   5.596 -0.7418 -0.6439 -0.9290
 7003TIP3    H247121   4.924   5.849   5.554  0.1280 -1.7664  0.7993
 7004TIP3   OH247122   5.141   7.104   1.577  0.4593 -0.3124 -0.2322
 7004TIP3    H147123   5.086   7.025   1.586 -0.0080  0.1302  1.0292
 7004TIP3    H247124   5.140   7.143   1.664  0.8554  0.9912 -0.7990
 7005TIP3   OH247125   3.950   5.372   6.866  0.0312  0.0227  0.7154
 7005TIP3    H147126   4.003   5.385   6.945 -2.4530  0.5351  2.4034
 7005TIP3    H247127   3.944   5.458   6.826 -0.4860  0.1992  1.1709
 7006TIP3   OH247128   0.946   0.291   1.212  0.6589 -0.5251  0.2540
 7006TIP3    H147129   0.871   0.233   1.225  1.3308 -1.2893  0.8663
 7006TIP3    H247130   0.973   0.276   1.122  1.5700 -2.1362  0.7420
 7007TIP3   OH247131   7.698   1.474   0.954  0.2927  0.2132 -0.7179
 7007TIP3    H147132   7.665   1.532   1.022 -1.1114 -0.2242 -1.0086
 7007TIP3    H247133   7.790   1.460   0.979 -0.2074 -0.0542  1.1701
 7008TIP3   OH247134   6.913   4.600   6.737  0.7200  0.0490 -0.1770
 7008TIP3    H147135   6.914   4.616   6.643  2.9432  3.6210  0.2860
 7008TIP3    H247136   6.953   4.678   6.776 -0.1898 -1.2112  3.7760
 7009TIP3   OH247137   6.890   3.417   7.315 -0.1858 -0.2361  0.1221
 7009TIP3    H147138   6.924   3.439   7.402  2.1036  1.3922 -1.0572
 7009TIP3    H247139   6.842   3.496   7.288 -1.0680 -0.8150 -0.0342
 7010TIP3   OH247140   1.486   5.117   7.311  0.2375  0.7040  0.2708
 7010TIP3    H147141   1.417   5.143   7.373 -1.8585 -0.1579 -1.5514
 7010TIP3    H247142   1.559   5.092   7.367 -1.7008 -0.4951  2.4753
 7011TIP3   OH247143   2.745   3.271   1.737  0.1512  0.0720 -0.2589
 7011TIP3    H147144   2.778   3.319   1.661  0.4794  0.4670  0.1289
 7011TIP3    H247145   2.821   3.261   1.794 -0.4937  1.5035  0.9153
 7012TIP3   OH247146   3.756   2.884   7.270  0.8901 -0.0608 -0.0616
 7012TIP3    H147147   3.707   2.916   7.345 -0.7064 -2.3486 -0.0145
 7012TIP3    H247148   3.746   2.951   7.203 -0.5299  0.4845  0.6706
 7013TIP3   OH247149   0.079   4.728   5.780 -0.3987  0.2819 -0.3320
 7013TIP3    H147150   0.089   4.761   5.869  1.0684 -0.0469 -0.3464
 7013TIP3    H247151   0.059   4.805   5.727 -3.0414  0.2503  0.5043
 7014TIP3   OH247152   0.055   6.139   1.097 -0.2799  0.1159 -0.2247
 7014TIP3    H147153   0.149   6.129   1.108 -0.4250  1.1867  2.7722
 7014TIP3    H247154   0.024   6.050   1.078  1.3159 -0.1831 -1.6922
 7015TIP3   OH247155   6.789   6.890   7.206 -0.5115 -0.2097 -0.4577
 7015TIP3    H147156   6.801   6.958   7.140  0.1859 -0.9651 -1.1319
 7015TIP3    H247157   6.742   6.934   7.277  2.1590  1.7040  0.2874
 7016TIP3   OH247158   1.713   2.191   0.492 -0.3968  0.3766 -0.2720
 7016TIP3    H147159   1.659   2.127   0.537 -0.4281  0.0951 -0.6973
 7016TIP3    H247160   1.664   2.273   0.499 -0.1256  0.4659  0.6870
 7017TIP3   OH247161   0.349   4.779   5.951  0.7019 -0.2408  0.3375
 7017TIP3    H147162   0.428   4.734   5.980  1.7613  2.4448  2.0066
 7017TIP3    H247163   0.381   4.854   5.901 -0.7680  0.7171  0.7644
 7018TIP3   OH247164   7.493   5.275   7.125 -0.1967 -0.0403 -0.7658
 7018TIP3    H147165   7.425   5.274   7.192  0.1737 -0.1371 -0.3860
 7018TIP3    H247166   7.575   5.288   7.174 -0.1522  2.8247 -1.4093
 7019TIP3   OH247167   2.129   2.752   6.554 -0.1932 -0.2723  0.0100
 7019TIP3    H147168   2.208   2.713   6.517 -0.8455 -2.2019  0.5014
 7019TIP3    H247169   2.088   2.680   6.603 -2.4486  0.5603 -0.5393
 7020TIP3   OH247170   4.088   5.458   1.414  0.3224  0.2231  0.0554
 7020TIP3    H147171   4.009   5.466   1.360  1.6027 -1.2059 -2.2342
 7020TIP3    H247172   4.118   5.548   1.426 -2.4105  0.9727  2.3800
 7021TIP3   OH247173   6.454   2.334   0.999 -0.2397  0.0397 -0.1622
 7021TIP3    H147174   6.446   2.239   1.011 -1.4421  0.1747  0.2575
 7021TIP3    H247175   6.438   2.347   0.905  0.7650 -0.2414 -0.3787
 7022TIP3   OH247176   6.714   0.497   0.025 -0.0728  0.4129 -0.0059
 7022TIP3    H147177   6.713   0.525   0.116 -0.5208 -1.4521  0.5901
 7022TIP3    H247178   6.769   0.419   0.024 -1.3438 -0.5183 -1.0166
 7023TIP3   OH247179   4.769   0.890   0.570 -0.6637 -0.0479 -0.3465
 7023TIP3    H147180   4.765   0.854   0.481 -2.4613 -2.4522  0.6170
 7023TIP3    H247181   4.858   0.870   0.600 -0.2725  0.1572 -1.3259
 7024TIP3   OH247182   7.043   5.620   2.638 -0.0778 -0.1427  0.3773
 7024TIP3    H147183   7.063   5.713   2.653 -0.4964  0.2759 -1.5174
 7024TIP3    H247184   7.129   5.579   2.629  0.0976  0.4742 -0.9920
 7025TIP3   OH247185   3.923   3.261   1.934  0.2752 -0.2126  0.1938
 7025TIP3    H147186   3.883   3.316   1.867  1.8580  0.6945 -0.0526
 7025TIP3    H247187   3.922   3.316   2.013 -0.6386 -0.8905  0.6739
 7026TIP3   OH247188   4.647   6.257   6.772  0.2478 -0.1431  0.0233
 7026TIP3    H147189   4.678   6.332   6.822  0.0782 -1.2089  1.8081
 7026TIP3    H247190   4.557   6.279   6.749  0.6561  0.7886 -0.7294
 7027TIP3   OH247191   0.435   4.898   1.929  0.0429 -0.1102 -0.5089
 7027TIP3    H147192   0.509   4.920   1.986 -0.9060  3.2931 -0.3657
 7027TIP3    H247193   0.395   4.983   1.909 -1.5234 -1.4593 -3.7402
 7028TIP3   OH247194   1.975   5.629   0.355  0.2809  0.0938 -0.1209
 7028TIP3    H147195   1.901   5.689   0.356  1.2254  1.3347  1.4625
 7028TIP3    H247196   2.015   5.641   0.269  0.8418  2.3053  0.3884
 7029TIP3   OH247197   7.730   2.194   7.332 -0.5450 -0.2173  0.8138
 7029TIP3    H147198   7.679   2.198   7.413 -2.5604  1.1808 -0.4599
 7029TIP3    H247199   7.710   2.275   7.286  0.7559 -0.8519 -0.9892
 7030TIP3   OH247200   2.201   5.996   0.007 -0.2597  0.0873  0.1170
 7030TIP3    H147201   2.240   5.985  -0.080  0.0965 -0.6394  0.3595
 7030TIP3    H247202   2.228   6.084   0.034  0.6606 -0.1464 -0.0046
 7031TIP3   OH247203   0.674   5.848   2.484  0.3057  0.1138 -0.3548
 7031TIP3    H147204   0.716   5.930   2.457 -0.4602  1.1685  1.4725
 7031TIP3    H247205   0.598   5.840   2.427 -0.1777  1.2302  0.0993
 7032TIP3   OH247206   1.544   3.371   7.255 -0.4898  0.0668 -0.6071
 7032TIP3    H147207   1.605   3.378   7.182 -1.7942 -1.1222 -1.8655
 7032TIP3    H247208   1.565   3.446   7.311  1.8185 -0.0829 -1.1865
 7033TIP3   OH247209   5.863   1.124   6.041 -0.3572  0.4659 -0.5523
 7033TIP3    H147210   5.807   1.049   6.059 -1.1891  1.2297  0.0907
 7033TIP3    H247211   5.940   1.086   5.997 -0.8256 -0.7333 -0.3729
 7034TIP3   OH247212   6.237   0.310   7.504 -0.1826 -0.6212  0.3575
 7034TIP3    H147213   6.186   0.286   7.582 -1.0066  0.4417  0.1663
 7034TIP3    H247214   6.194   0.262   7.433 -0.4831 -0.2837  0.3075
 7035TIP3   OH247215   0.449   4.076   6.387 -0.7159  0.0241 -0.1470
 7035TIP3    H147216   0.395   4.007   6.425 -0.9118  1.1809  1.8192
 7035TIP3    H247217   0.535   4.064   6.426 -0.3827  0.0829 -0.8489
 7036TIP3   OH247218   2.665   4.411   1.923  0.1798 -0.3240  0.3833
 7036TIP3    H147219   2.632   4.324   1.946  2.5371 -1.3372  0.1650
 7036TIP3    H247220   2.648   4.419   1.829  0.8948 -1.0007  0.1890
 7037TIP3   OH247221   1.204   4.470   6.223 -0.7842 -0.5189  0.3268
 7037TIP3    H147222   1.239   4.547   6.178 -1.2255  0.2645  1.2816
 7037TIP3    H247223   1.139   4.506   6.283  0.1530 -1.4623  1.9771
 7038TIP3   OH247224   2.152   2.736   2.182  0.4060 -0.1111  0.0574
 7038TIP3    H147225   2.142   2.655   2.232  0.7672  0.4528  1.0620
 7038TIP3    H247226   2.083   2.732   2.116  0.7754 -1.5097 -0.2941
 7039TIP3   OH247227   4.951   3.772   7.695  0.4075 -0.6789  0.1674
 7039TIP3    H147228   4.992   3.858   7.683  0.8188 -0.7623  0.9226
 7039TIP3    H247229   4.999   3.714   7.636  0.6706 -0.5551  0.2580
 7040TIP3   OH247230   5.485   7.998   7.823  0.3322 -0.0913 -0.5220
 7040TIP3    H147231   5.545   8.033   7.757  1.2362 -1.4137 -0.4323
 7040TIP3    H247232   5.418   8.067   7.833  1.3368  1.0361 -1.2590
 7041TIP3   OH247233   6.331   7.107   7.642  0.2615  0.1344  0.3964
 7041TIP3    H147234   6.354   7.022   7.604 -0.7296  0.1673 -0.3042
 7041TIP3    H247235   6.282   7.086   7.722 -1.1857  0.0053 -0.4914
 7042TIP3   OH247236   1.764   4.394   6.653  0.1140  0.2959  0.0738
 7042TIP3    H147237   1.853   4.422   6.675  0.4517 -0.1420 -0.7011
 7042TIP3    H247238   1.731   4.462   6.594 -0.4292  0.9550  1.0991
 7043TIP3   OH247239   3.539   3.403   5.514 -0.0785  0.6928 -0.5695
 7043TIP3    H147240   3.495   3.486   5.496 -0.4579  0.8782  1.1090
 7043TIP3    H247241   3.631   3.420   5.492 -0.3484  1.1899 -1.3482
 7044TIP3   OH247242   0.296   5.633   6.870 -0.1771 -0.1813 -0.0040
 7044TIP3    H147243   0.230   5.573   6.834  0.3813 -1.1156  0.4783
 7044TIP3    H247244   0.363   5.640   6.801 -1.5951  2.2526 -1.2850
 7045TIP3   OH247245   4.343   7.867   7.797 -0.6211  0.3547  0.0882
 7045TIP3    H147246   4.363   7.950   7.841 -0.5896  0.2858  0.2067
 7045TIP3    H247247   4.418   7.852   7.739 -0.4929  0.2709  0.2742
 7046TIP3   OH247248   4.153   0.651   0.002  0.3527  0.1144  0.1488
 7046TIP3    H147249   4.164   0.620   0.092 -3.8947 -0.3449  0.7286
 7046TIP3    H247250   4.145   0.571  -0.050 -0.4202  0.3382 -0.0833
 7047TIP3   OH247251   4.745   1.949   1.189 -0.2086 -0.1519  0.0799
 7047TIP3    H147252   4.685   1.906   1.251  0.6743 -0.4944  0.7134
 7047TIP3    H247253   4.725   2.042   1.198 -2.5421 -0.3754 -1.7170
 7048TIP3   OH247254   4.022   3.051   0.553  0.4065 -0.5663 -0.1641
 7048TIP3    H147255   4.102   3.072   0.600  0.9405 -1.3688 -0.6689
 7048TIP3    H247256   4.009   2.957   0.569 -0.3529 -0.4726 -0.2035
 7049TIP3   OH247257   6.800   1.070   5.294  0.2680  0.5640  0.7864
 7049TIP3    H147258   6.747   1.150   5.299 -0.3290  0.1944  0.5564
 7049TIP3    H247259   6.742   1.006   5.251  0.9829  0.2145  0.3256
 7050TIP3   OH247260   5.352   7.713   1.359 -0.2572  0.3226  0.8411
 7050TIP3    H147261   5.268   7.686   1.321  1.0207 -0.4714 -1.6848
 7050TIP3    H247262   5.416   7.652   1.321  1.6338  1.7604  1.5648
 7051TIP3   OH247263   1.772   4.205   7.677 -0.3732  0.2358  0.7448
 7051TIP3    H147264   1.787   4.262   7.601 -2.5265 -0.0959  0.0061
 7051TIP3    H247265   1.841   4.139   7.672  0.7114  1.3711  0.2355
 7052TIP3   OH247266   0.737   2.640   6.729  0.5338 -0.4125  0.2761
 7052TIP3    H147267   0.729   2.583   6.806 -0.0600  0.8252  1.1780
 7052TIP3    H247268   0.784   2.587   6.665 -1.3733 -2.4967  0.4629
 7053TIP3   OH247269   0.689   1.636   6.967 -0.7956 -0.2876 -0.3080
 7053TIP3    H147270   0.635   1.711   6.992 -0.7058 -0.5909  0.8422
 7053TIP3    H247271   0.663   1.566   7.027 -0.4155 -0.9940 -0.9385
 7054TIP3   OH247272   7.936   5.902   7.265  0.5142 -0.7074 -0.0978
 7054TIP3    H147273   7.850   5.859   7.259  0.3668 -0.2298 -2.3609
 7054TIP3    H247274   7.996   5.840   7.221  0.4912  0.7958 -2.4272
 7055TIP3   OH247275   4.579   2.625   0.759  0.1205  0.3490  0.2279
 7055TIP3    H147276   4.501   2.570   0.744 -0.4258  1.2443 -0.3374
 7055TIP3    H247277   4.544   2.707   0.794  0.9775  0.1437  1.6294
 7056TIP3   OH247278   7.636   0.474   6.165  0.3261  0.1631 -0.3955
 7056TIP3    H147279   7.614   0.435   6.250  0.3366  0.4441 -0.2609
 7056TIP3    H247280   7.731   0.461   6.157  0.0321 -1.6760 -1.2991
 7057TIP3   OH247281   6.678   5.701   7.910 -0.1810  0.0852  0.4251
 7057TIP3    H147282   6.756   5.756   7.914  0.7700 -1.2272  3.6868
 7057TIP3    H247283   6.712   5.611   7.912 -1.7662 -0.5454  0.2707
 7058TIP3   OH247284   2.074   6.267   7.181  0.6285  0.1557  0.2297
 7058TIP3    H147285   2.160   6.307   7.192  0.5579  0.5301 -0.4837
 7058TIP3    H247286   2.013   6.340   7.180  0.2578 -0.1258  1.0225
 7059TIP3   OH247287   5.492   6.411   6.935 -0.7665  0.0976 -0.5366
 7059TIP3    H147288   5.553   6.461   6.882 -0.8780 -0.9829 -1.7201
 7059TIP3    H247289   5.531   6.324   6.942 -1.2034 -0.0387  0.3855
 7060TIP3   OH247290   6.627   5.464   0.927  0.3729  0.0228  0.0390
 7060TIP3    H147291   6.560   5.466   0.859  1.2505  0.7806 -0.8294
 7060TIP3    H247292   6.708   5.440   0.880  0.8772 -0.0229  0.9131
 7061TIP3   OH247293   2.901   1.343   6.847  0.0531  0.0701  0.1262
 7061TIP3    H147294   2.847   1.411   6.805 -1.1320 -2.2816 -2.4488
 7061TIP3    H247295   2.971   1.326   6.785  1.6641  0.4171  1.7652
 7062TIP3   OH247296   5.814   7.533   2.282  0.0873 -0.6040  0.0316
 7062TIP3    H147297   5.795   7.450   2.327 -0.9930  0.3121  1.3474
 7062TIP3    H247298   5.886   7.572   2.331  0.1769 -0.4690 -0.2041
 7063TIP3   OH247299   7.277   4.201   7.745  0.3250  0.0258  0.2682
 7063TIP3    H147300   7.278   4.142   7.820 -0.7432  1.8026  1.7515
 7063TIP3    H247301   7.189   4.192   7.709  0.0180  0.9727  0.7515
 7064TIP3   OH247302   7.332   2.799   6.109 -0.0946  0.1601  0.2707
 7064TIP3    H147303   7.333   2.706   6.091 -1.5610  0.2533 -0.4384
 7064TIP3    H247304   7.346   2.841   6.024 -1.4363  0.5668  0.2210
 7065TIP3   OH247305   4.833   2.677   0.993  0.3394 -0.3863  0.0707
 7065TIP3    H147306   4.785   2.616   1.049  0.6739  0.4370  1.2961
 7065TIP3    H247307   4.765   2.733   0.955  0.0794 -1.1665 -0.6479
 7066TIP3   OH247308   0.348   5.647   7.686  0.0416  0.1255 -0.2753
 7066TIP3    H147309   0.431   5.694   7.699 -0.0776  0.3195 -0.2117
 7066TIP3    H247310   0.281   5.714   7.697 -0.2604 -0.5153  2.2070
 7067TIP3   OH247311   6.408   2.229   1.351  0.7694 -0.0298 -0.1640
 7067TIP3    H147312   6.332   2.262   1.304  1.3341  3.4158  1.0877
 7067TIP3    H247313   6.380   2.224   1.442  1.0427 -2.2472 -0.1436
 7068TIP3   OH247314   0.720   4.630   7.630  0.1075 -0.0229 -0.3405
 7068TIP3    H147315   0.677   4.709   7.598 -0.6461  0.1303  0.9912
 7068TIP3    H247316   0.784   4.662   7.694 -0.1567 -0.4710  0.1560
 7069TIP3   OH247317   3.802   4.951   5.771  0.1687 -0.8307 -0.1065
 7069TIP3    H147318   3.881   4.916   5.731  0.8977  0.0608  0.4969
 7069TIP3    H247319   3.772   5.020   5.711 -0.8007 -1.8975 -0.8859
 7070TIP3   OH247320   6.296   1.225   5.747 -0.1585  0.2451  0.7011
 7070TIP3    H147321   6.333   1.223   5.659 -3.1663 -0.1410 -0.6775
 7070TIP3    H247322   6.232   1.154   5.748 -1.4579  1.3538  2.5641
 7071TIP3   OH247323   2.288   6.009   0.916 -0.0617 -0.0392  0.7098
 7071TIP3    H147324   2.376   5.986   0.885 -0.4354  0.0595 -0.4940
 7071TIP3    H247325   2.303   6.056   0.998  1.0092 -0.1046  0.5717
 7072TIP3   OH247326   0.897   5.052   0.146  0.0824  0.4284  0.1574
 7072TIP3    H147327   0.914   5.115   0.217  1.5661 -0.3213  0.5089
 7072TIP3    H247328   0.924   5.098   0.067 -2.2266  1.5356 -0.0987
 7073TIP3   OH247329   0.365   4.358   1.490  0.4417 -0.1516  0.1339
 7073TIP3    H147330   0.319   4.276   1.507  2.1214 -0.7596  2.1507
 7073TIP3    H247331   0.439   4.333   1.434  0.4819  0.1269  0.0625
 7074TIP3   OH247332   4.727   6.061   1.037 -0.1905  0.4076 -0.0346
 7074TIP3    H147333   4.795   6.048   1.103 -0.8236 -0.6105  0.4296
 7074TIP3    H247334   4.734   6.154   1.014  2.0583  0.1294 -0.7678
 7075TIP3   OH247335   6.094   1.002   5.982  0.0666 -0.0650  0.1666
 7075TIP3    H147336   6.161   0.942   6.015  0.2924 -1.1440 -2.0625
 7075TIP3    H247337   6.100   0.995   5.887 -3.1071 -0.0786 -0.1372
 7076TIP3   OH247338   5.487   0.154   0.473  0.7513  0.1630  0.5228
 7076TIP3    H147339   5.549   0.193   0.412 -1.4264  0.9522 -1.3474
 7076TIP3    H247340   5.439   0.089   0.421 -0.0982 -0.3018  1.8310
 7077TIP3   OH247341   0.219   2.019   7.339  0.6619 -0.0729 -0.1023
 7077TIP3    H147342   0.235   2.114   7.340  1.1752 -0.1265  1.7640
 7077TIP3    H247343   0.161   2.004   7.414  2.1516 -1.4328  0.8480
 7078TIP3   OH247344   5.711   4.798   1.426 -0.3855  0.3876  0.5590
 7078TIP3    H147345   5.659   4.753   1.360  0.2143 -1.0372  1.0132
 7078TIP3    H247346   5.797   4.810   1.386 -0.6547  1.5602  0.2868
 7079TIP3   OH247347   6.897   7.471   0.708 -0.5922 -0.2645 -0.3423
 7079TIP3    H147348   6.990   7.460   0.727 -0.6447 -0.8330 -0.4069
 7079TIP3    H247349   6.878   7.405   0.641 -0.9373  0.1552 -0.6619
 7080TIP3   OH247350   7.266   8.031   0.374  0.3704  0.2618 -1.0911
 7080TIP3    H147351   7.229   8.107   0.328 -1.8760  0.0122  0.1553
 7080TIP3    H247352   7.307   8.068   0.452 -0.7622  0.2415 -0.4611
 7081TIP3   OH247353   1.218   5.468   1.622 -0.2489 -0.3894 -0.6551
 7081TIP3    H147354   1.289   5.463   1.558  0.7874 -0.4857  0.4428
 7081TIP3    H247355   1.263   5.469   1.707 -1.4177  2.3886  0.0373
 7082TIP3   OH247356   5.379   3.174   6.674 -0.0293  0.0177 -0.2814
 7082TIP3    H147357   5.385   3.093   6.623  1.7106 -0.4992  0.6918
 7082TIP3    H247358   5.301   3.218   6.640  0.5808 -0.7069 -2.8106
 7083TIP3   OH247359   7.042   7.750   6.116  0.0499  0.2065  0.2852
 7083TIP3    H147360   7.004   7.673   6.074 -1.0256  1.3318 -0.9405
 7083TIP3    H247361   7.054   7.813   6.044 -2.7897  2.5974  1.6774
 7084TIP3   OH247362   6.986   0.167   1.808 -0.4763 -0.4443 -0.0276
 7084TIP3    H147363   7.069   0.155   1.762 -0.9746  0.0281 -1.0790
 7084TIP3    H247364   7.011   0.199   1.895  0.3842  3.0794 -1.3976
 7085TIP3   OH247365   6.510   7.000   1.781 -0.1211 -0.2577  0.0894
 7085TIP3    H147366   6.563   6.965   1.852  0.5404  0.7721  0.1264
 7085TIP3    H247367   6.449   7.061   1.823  0.2077  0.2827 -0.2003
 7086TIP3   OH247368   5.954   3.447   1.823 -0.1311  0.0480 -0.4801
 7086TIP3    H147369   5.919   3.492   1.900 -2.3227  0.3818 -1.6016
 7086TIP3    H247370   6.000   3.515   1.773  0.7897 -0.0500  0.2032
 7087TIP3   OH247371   3.846   6.027   7.678 -0.3692 -0.2520 -0.2837
 7087TIP3    H147372   3.809   5.996   7.596 -0.4698 -0.5600 -0.1202
 7087TIP3    H247373   3.857   6.122   7.665  1.9192 -0.6183 -1.5619
 7088TIP3   OH247374   1.746   7.439   6.133 -0.3110 -0.0771  0.0408
 7088TIP3    H147375   1.757   7.473   6.044 -1.0093  0.8298  0.2888
 7088TIP3    H247376   1.766   7.345   6.126 -0.7969 -0.1013 -1.1572
 7089TIP3   OH247377   2.736   5.865   6.031 -0.8398 -0.4406 -0.0071
 7089TIP3    H147378   2.655   5.915   6.042 -1.3013 -1.1142 -0.2348
 7089TIP3    H247379   2.779   5.905   5.955 -1.4886 -0.7495 -0.5488
 7090TIP3   OH247380   8.071   5.803   7.520  0.0202 -0.1406 -0.2220
 7090TIP3    H147381   7.987   5.841   7.544 -0.2419 -1.5656  1.3096
 7090TIP3    H247382   8.115   5.871   7.471 -1.5041  1.1162  0.0799
 7091TIP3   OH247383   2.916   6.306   7.567  0.1748  0.5579  0.2458
 7091TIP3    H147384   2.909   6.261   7.652 -0.1797  1.7127  0.8443
 7091TIP3    H247385   2.944   6.237   7.507 -3.4028 -1.3255  0.4541
 7092TIP3   OH247386   6.081   4.435   6.572 -0.6812  0.2115 -0.2644
 7092TIP3    H147387   6.136   4.476   6.638  0.3687 -0.8090 -0.4909
 7092TIP3    H247388   6.128   4.449   6.490 -0.8481 -0.4992 -0.4856
 7093TIP3   OH247389   1.947   1.166   0.296 -0.1816  0.3468 -0.7802
 7093TIP3    H147390   1.984   1.175   0.208 -2.0794  0.8343 -1.5781
 7093TIP3    H247391   1.868   1.221   0.295 -0.6076 -0.1565  1.0151
 7094TIP3   OH247392   6.035   1.855   6.623  0.4466  0.4495  0.2488
 7094TIP3    H147393   6.111   1.857   6.565 -0.4041 -0.5772 -0.9705
 7094TIP3    H247394   6.062   1.798   6.695  0.3773 -1.1937 -0.9478
 7095TIP3   OH247395   1.529   2.607   0.027 -0.1072 -0.3471 -0.8122
 7095TIP3    H147396   1.616   2.566   0.037  0.0123 -0.0933 -0.8108
 7095TIP3    H247397   1.500   2.580  -0.060 -0.5421 -1.4073 -0.3602
 7096TIP3   OH247398   3.300   2.482   0.568 -0.4091 -0.4498 -0.4286
 7096TIP3    H147399   3.315   2.538   0.493  1.6314 -0.6503 -0.2301
 7096TIP3    H247400   3.381   2.432   0.577 -1.7404 -2.6485  0.0627
 7097TIP3   OH247401   6.226   6.665   5.747 -0.2224  0.2989 -0.0101
 7097TIP3    H147402   6.185   6.600   5.804  1.0994 -0.1297  0.5059
 7097TIP3    H247403   6.175   6.663   5.667 -0.5782 -0.9504  0.2325
 7098TIP3   OH247404   0.437   1.959   6.586 -0.2890 -0.0075 -0.3545
 7098TIP3    H147405   0.478   1.892   6.531 -2.7953 -0.2544 -2.1333
 7098TIP3    H247406   0.364   1.914   6.629 -0.3569  0.9683  0.5909
 7099TIP3   OH247407   1.488   0.677   0.629  0.3393 -0.0574  0.4335
 7099TIP3    H147408   1.407   0.726   0.644  1.0798  1.9636 -1.6294
 7099TIP3    H247409   1.488   0.657   0.535  0.9344 -2.5785  0.8826
 7100TIP3   OH247410   2.817   0.126   7.608 -0.2920 -0.1620 -0.0834
 7100TIP3    H147411   2.723   0.128   7.621 -0.1486  1.3129  1.0528
 7100TIP3    H247412   2.844   0.218   7.613  0.9235 -0.2637 -2.8451
 7101TIP3   OH247413   1.731   1.087   0.548  0.9781  0.3394 -0.0887
 7101TIP3    H147414   1.684   1.034   0.612  0.3620  0.5067 -0.3986
 7101TIP3    H247415   1.735   1.174   0.586 -2.8299  1.5099 -1.8481
 7102TIP3   OH247416   2.569   4.690   5.533 -0.0287  0.2062 -0.6403
 7102TIP3    H147417   2.484   4.646   5.539  0.8841 -1.5672  0.3789
 7102TIP3    H247418   2.555   4.775   5.574 -1.4200  0.1290 -0.9064
 7103TIP3   OH247419   4.582   0.825   7.454  0.4512  0.0183  0.3481
 7103TIP3    H147420   4.568   0.856   7.364 -1.6839  0.6804  0.8587
 7103TIP3    H247421   4.578   0.904   7.507  1.1800 -0.4363  1.1115
 7104TIP3   OH247422   4.544   7.561   1.153 -0.1618 -0.0514  0.1997
 7104TIP3    H147423   4.532   7.618   1.078 -2.8472 -1.3525 -0.4794
 7104TIP3    H247424   4.568   7.620   1.225 -1.1725  1.7116 -0.8478
 7105TIP3   OH247425   3.920   5.977   5.367 -0.3305 -0.0979  0.5530
 7105TIP3    H147426   3.831   6.005   5.345  0.1476  1.5866  0.6097
 7105TIP3    H247427   3.936   5.902   5.311 -1.7542 -0.3874  0.4796
 7106TIP3   OH247428   1.573   3.163   6.619 -0.2048  0.0867  0.3297
 7106TIP3    H147429   1.521   3.175   6.540  0.2335  0.7777  0.1365
 7106TIP3    H247430   1.518   3.196   6.689 -0.7675 -0.9274  0.3827
 7107TIP3   OH247431   5.792   6.541   6.432 -0.2584 -0.3685  0.0178
 7107TIP3    H147432   5.867   6.549   6.373  0.8566  0.3865  1.4796
 7107TIP3    H247433   5.760   6.631   6.444 -0.5998 -0.5372  0.4176
 7108TIP3   OH247434   6.365   4.609   2.427 -0.9332  0.1126  0.1501
 7108TIP3    H147435   6.423   4.546   2.384 -0.2535 -0.0139  1.2432
 7108TIP3    H247436   6.279   4.566   2.425 -0.5368 -0.7333  0.6141
 7109TIP3   OH247437   0.957   4.768   0.918 -0.4391 -0.0213 -0.2079
 7109TIP3    H147438   0.896   4.842   0.905  0.3522  1.3251  2.9453
 7109TIP3    H247439   0.906   4.703   0.966  0.0852  0.4111  0.9700
 7110TIP3   OH247440   0.843   7.726   0.914  0.1462  0.1452 -0.1356
 7110TIP3    H147441   0.918   7.668   0.900  0.2954  0.8929 -3.1765
 7110TIP3    H247442   0.773   7.668   0.943  0.6490 -1.3894 -1.7935
 7111TIP3   OH247443   5.128   4.902   1.294  0.4891  0.1020 -0.1515
 7111TIP3    H147444   5.179   4.876   1.216  1.9144 -1.8780  1.3152
 7111TIP3    H247445   5.037   4.900   1.265  1.0095  0.0777 -1.9251
 7112TIP3   OH247446   0.447   0.910   1.056  0.0885  0.3137  0.4092
 7112TIP3    H147447   0.427   0.858   1.134 -1.8221 -0.0923 -0.3015
 7112TIP3    H247448   0.426   0.851   0.983 -0.5668  1.5279 -0.4112
 7113TIP3   OH247449   6.054   3.784   0.736 -0.1657 -0.3459  0.0870
 7113TIP3    H147450   6.094   3.715   0.683 -1.5093  0.9639 -2.8637
 7113TIP3    H247451   6.126   3.823   0.785  1.2240 -1.4738 -0.9845
 7114TIP3   OH247452   4.772   7.921   6.356  0.4147  0.4792 -0.0896
 7114TIP3    H147453   4.826   7.900   6.432 -1.6305  0.5668  1.4691
 7114TIP3    H247454   4.759   8.015   6.360  0.7130  0.5585 -0.8575
 7115TIP3   OH247455   7.462   6.578   7.552  0.0064 -0.7264 -0.8218
 7115TIP3    H147456   7.464   6.655   7.608 -0.2672 -0.5829 -1.0072
 7115TIP3    H247457   7.546   6.534   7.569 -0.3041 -0.9900  0.1129
 7116TIP3   OH247458   1.125   6.620   1.872  0.1061 -0.1835 -0.0508
 7116TIP3    H147459   1.035   6.642   1.895 -0.2485  0.3180 -1.7769
 7116TIP3    H247460   1.163   6.703   1.841  0.7014 -0.7022 -0.7413
 7117TIP3   OH247461   7.698   1.990   1.322  0.0203  0.0928  0.8253
 7117TIP3    H147462   7.779   2.041   1.315 -0.0100  0.1656  0.9837
 7117TIP3    H247463   7.651   2.008   1.241 -1.2043  2.4471  1.9374
 7118TIP3   OH247464   3.148   5.530   1.709 -0.6368  0.0784  0.6772
 7118TIP3    H147465   3.091   5.553   1.636 -0.9170 -2.4391  0.0129
 7118TIP3    H247466   3.089   5.513   1.782 -0.5701 -0.2093  0.6657
 7119TIP3   OH247467   2.980   6.815   1.909 -0.7491  0.0755 -0.1937
 7119TIP3    H147468   2.966   6.760   1.986 -1.2211 -1.5726 -1.3900
 7119TIP3    H247469   3.070   6.797   1.882 -0.8766 -0.0675 -0.5361
 7120TIP3   OH247470   0.936   6.752   6.265 -0.2716 -0.7364 -0.5628
 7120TIP3    H147471   0.916   6.737   6.172 -0.3953 -1.9311 -0.3614
 7120TIP3    H247472   1.031   6.767   6.267 -0.4825  0.7921 -1.0426
 7121TIP3   OH247473   6.236   4.502   5.858 -0.8209  0.2966 -0.0751
 7121TIP3    H147474   6.218   4.571   5.923  1.9663  1.1945 -0.1023
 7121TIP3    H247475   6.293   4.441   5.904 -1.5120 -0.8651 -0.7298
 7122TIP3   OH247476   1.192   2.955   5.715 -0.2608 -0.1867  0.6116
 7122TIP3    H147477   1.257   3.024   5.705 -0.1399 -0.4744 -0.7727
 7122TIP3    H247478   1.110   3.001   5.734  0.0732  0.2471  1.0273
 7123TIP3   OH247479   2.141   7.497   7.126  0.0365 -0.0421  0.1595
 7123TIP3    H147480   2.122   7.410   7.161 -0.7849  0.3303  0.6675
 7123TIP3    H247481   2.073   7.512   7.061  1.2885 -0.5409 -1.3157
 7124TIP3   OH247482   7.589   7.298   7.111  0.6006 -0.5606 -0.0898
 7124TIP3    H147483   7.621   7.208   7.121  1.8020 -0.2416 -0.8261
 7124TIP3    H247484   7.495   7.292   7.126  0.3785 -2.2279 -1.7688
 7125TIP3   OH247485   0.518   2.976   0.745 -0.2179  0.5046  0.0175
 7125TIP3    H147486   0.508   2.883   0.768 -1.2269  0.8894  1.1902
 7125TIP3    H247487   0.607   2.981   0.710 -0.2007 -0.9379 -0.2432
 7126TIP3   OH247488   4.792   4.424   6.647 -0.3290 -0.0485  0.1674
 7126TIP3    H147489   4.870   4.400   6.696 -0.8403 -1.7176  0.1965
 7126TIP3    H247490   4.719   4.397   6.702 -0.9754  1.6320  0.2073
 7127TIP3   OH247491   1.851   5.450   1.463  0.5716  0.2165  0.4426
 7127TIP3    H147492   1.898   5.428   1.543 -0.3377 -0.6273  0.7691
 7127TIP3    H247493   1.802   5.529   1.485 -2.9922 -2.2132  2.2168
 7128TIP3   OH247494   4.400   0.031   0.314  0.2054  0.2584  0.0066
 7128TIP3    H147495   4.400  -0.004   0.225  0.9836  1.1574 -0.3613
 7128TIP3    H247496   4.483   0.001   0.352  0.3204  0.6876  0.0960
 7129TIP3   OH247497   1.512   8.012   1.979 -0.1690 -0.6366  0.1448
 7129TIP3    H147498   1.419   8.027   1.993 -0.3137  0.3965 -1.6086
 7129TIP3    H247499   1.517   7.934   1.924  0.1417 -1.8224  1.7719
 7130TIP3   OH247500   7.526   6.331   5.856 -0.2066  0.0781 -0.3978
 7130TIP3    H147501   7.588   6.277   5.905  0.9970  0.7829 -1.0610
 7130TIP3    H247502   7.450   6.340   5.913  0.1827 -1.0670  0.3210
 7131TIP3   OH247503   1.221   7.621   5.589 -0.7818 -0.1884  0.4402
 7131TIP3    H147504   1.285   7.649   5.655 -1.4496  3.0970 -0.0988
 7131TIP3    H247505   1.274   7.596   5.513 -0.0791 -1.6288  1.3770
 7132TIP3   OH247506   1.368   1.478   0.270 -0.0001  0.7271  0.0182
 7132TIP3    H147507   1.278   1.471   0.238 -0.2010  1.4004  0.4199
 7132TIP3    H247508   1.359   1.518   0.357  0.6691  0.5887  0.1522
 7133TIP3   OH247509   4.874   2.018   0.131 -0.5962 -0.2629  0.1468
 7133TIP3    H147510   4.785   2.031   0.163 -0.3686  2.6668 -0.1079
 7133TIP3    H247511   4.885   2.085   0.064  1.9562 -0.2298  0.4968
 7134TIP3   OH247512   4.134   7.046   7.163  0.0153  0.8693  0.3484
 7134TIP3    H147513   4.144   7.104   7.238  1.0857  0.8970  0.2044
 7134TIP3    H247514   4.213   6.992   7.164 -1.9525 -2.3006  1.9048
 7135TIP3   OH247515   5.737   6.085   7.770 -0.1081 -0.4256 -0.8252
 7135TIP3    H147516   5.789   6.034   7.709 -0.3128 -0.3492 -1.0649
 7135TIP3    H247517   5.787   6.084   7.852  0.5603  0.1510 -1.2221
 7136TIP3   OH247518   1.907   6.388   6.545 -0.2965  0.4180 -0.2609
 7136TIP3    H147519   1.890   6.339   6.464 -0.0015 -0.2938  0.1016
 7136TIP3    H247520   1.925   6.477   6.515 -1.6176  0.5043 -0.8741
 7137TIP3   OH247521   4.920   5.705   7.442 -0.1963 -0.0669 -0.4322
 7137TIP3    H147522   4.935   5.612   7.426  1.8163 -0.2232  1.6904
 7137TIP3    H247523   4.825   5.716   7.434 -1.0538 -3.1471  2.7092
 7138TIP3   OH247524   4.499   3.190   0.251 -0.3063  0.2404 -0.0938
 7138TIP3    H147525   4.482   3.101   0.221 -0.6292  0.6826 -1.2865
 7138TIP3    H247526   4.578   3.217   0.203  0.2470  0.3302  0.8479
 7139TIP3   OH247527   0.918   2.939   0.092 -0.5050  0.9298  0.0988
 7139TIP3    H147528   0.838   2.934   0.040 -0.5069  0.5675  0.1341
 7139TIP3    H247529   0.984   2.973   0.032 -0.7169  1.3620  0.1078
 7140TIP3   OH247530   2.608   3.346   0.740 -0.3722 -0.2550  0.2515
 7140TIP3    H147531   2.692   3.323   0.702  0.0407 -1.5878  1.8555
 7140TIP3    H247532   2.556   3.266   0.734 -0.5745 -0.2583  1.6800
 7141TIP3   OH247533   7.538   5.652   1.025 -0.4359 -0.1096 -0.0570
 7141TIP3    H147534   7.472   5.636   1.093 -1.7217 -0.8728 -1.4376
 7141TIP3    H247535   7.616   5.606   1.057 -1.0085 -0.4584  0.9014
 7142TIP3   OH247536   1.753   3.505   7.110 -0.3062 -0.0401  0.0097
 7142TIP3    H147537   1.735   3.500   7.016 -0.7095  1.1041  0.0147
 7142TIP3    H247538   1.756   3.599   7.129  2.7487 -0.1616  0.6045
 7143TIP3   OH247539   2.578   8.019   6.791  0.4679  0.0518 -0.1622
 7143TIP3    H147540   2.574   8.046   6.699 -0.5128 -1.8865 -0.7567
 7143TIP3    H247541   2.491   8.035   6.825  0.6739  0.2555  0.2800
 7144TIP3   OH247542   3.662   0.720   0.649  0.2245 -0.0074  0.1798
 7144TIP3    H147543   3.624   0.710   0.736 -0.1107 -0.8573 -0.0542
 7144TIP3    H247544   3.604   0.782   0.604  1.0006  1.2673  0.8963
 7145TIP3   OH247545   5.360   6.740   7.535  0.9830  0.1118 -0.5762
 7145TIP3    H147546   5.445   6.731   7.492  2.0299  1.9626  1.0137
 7145TIP3    H247547   5.375   6.799   7.608 -1.8974  1.3561 -0.8576
 7146TIP3   OH247548   6.664   7.713   1.920 -0.2521  0.4830  0.1522
 7146TIP3    H147549   6.638   7.767   1.994  1.8090 -0.3912  1.6246
 7146TIP3    H247550   6.718   7.771   1.866  1.3965  0.1853  1.3797
 7147TIP3   OH247551   1.332   7.740   6.743 -0.0285  0.2004 -0.0340
 7147TIP3    H147552   1.303   7.793   6.669  1.7432  0.9264 -0.2485
 7147TIP3    H247553   1.266   7.671   6.751  0.0595 -0.2709 -2.6766
 7148TIP3   OH247554   1.706   3.838   5.846  0.2188 -0.8786  0.0981
 7148TIP3    H147555   1.631   3.780   5.861 -0.3186 -0.1392  0.3281
 7148TIP3    H247556   1.776   3.799   5.898 -0.6230 -0.3755  1.6637
 7149TIP3   OH247557   6.015   1.171   2.025 -0.0345  0.1337  0.0126
 7149TIP3    H147558   6.055   1.116   1.958  2.1063  1.4974  0.0898
 7149TIP3    H247559   5.922   1.174   2.001  0.0207 -2.2805 -0.8018
 7150TIP3   OH247560   2.916   6.841   1.024 -0.4899  0.4997 -0.0658
 7150TIP3    H147561   2.905   6.818   0.932 -0.3786 -2.2012  0.5028
 7150TIP3    H247562   2.870   6.771   1.071  1.9407  0.1558  1.9656
 7151TIP3   OH247563   7.610   1.968   0.309 -0.0667  0.5113 -0.2472
 7151TIP3    H147564   7.669   2.040   0.287 -0.2912  1.2921  1.5781
 7151TIP3    H247565   7.633   1.944   0.399 -0.4179 -1.3087 -0.5893
 7152TIP3   OH247566   3.924   1.207   1.403 -0.5434  0.2577  0.2330
 7152TIP3    H147567   3.968   1.214   1.488  0.2789 -0.1385 -0.1466
 7152TIP3    H247568   3.951   1.285   1.356  1.8789 -1.1349 -0.9294
 7153TIP3   OH247569   6.408   1.914   1.807  0.1810 -0.4881 -0.2380
 7153TIP3    H147570   6.339   1.929   1.742  0.5397 -0.3318 -0.5841
 7153TIP3    H247571   6.410   1.995   1.858 -0.3418 -0.7452  0.1968
 7154TIP3   OH247572   2.660   7.878   0.100  0.0725  0.3686 -0.0278
 7154TIP3    H147573   2.644   7.958   0.149 -0.7991  0.8224 -1.0067
 7154TIP3    H247574   2.750   7.854   0.122 -0.1378  0.8126  1.3826
 7155TIP3   OH247575   7.480   3.080   7.084 -0.2947 -0.9181  0.1530
 7155TIP3    H147576   7.406   3.045   7.034  0.1079 -1.5662 -0.0005
 7155TIP3    H247577   7.531   3.002   7.109  0.3895 -0.4745  0.1663
 7156TIP3   OH247578   0.315   5.243   1.132  0.5945  0.1084 -0.1190
 7156TIP3    H147579   0.371   5.317   1.108 -0.3387  0.8378 -0.1012
 7156TIP3    H247580   0.270   5.272   1.212 -0.2719 -0.2139 -0.4770
 7157TIP3   OH247581   6.088   6.093   2.863  0.2428  0.1458  0.2355
 7157TIP3    H147582   6.050   6.150   2.797 -0.7371 -0.8452 -0.0938
 7157TIP3    H247583   6.159   6.047   2.817 -0.4769 -0.5870 -0.1756
 7158TIP3   OH247584   4.754   7.136   7.653  0.1733 -0.2179  0.4729
 7158TIP3    H147585   4.716   7.137   7.566  0.2704  0.3605  0.4387
 7158TIP3    H247586   4.747   7.044   7.681  0.5216 -0.4882 -0.3027
 7159TIP3   OH247587   5.471   3.550   2.018  0.2185  0.3848 -0.1108
 7159TIP3    H147588   5.534   3.479   2.004 -1.5757 -1.2638 -0.1532
 7159TIP3    H247589   5.510   3.625   1.974  1.8167 -0.7582 -0.7501
 7160TIP3   OH247590   0.292   2.577   7.203  0.1933 -0.0731  0.2765
 7160TIP3    H147591   0.357   2.641   7.174  0.8911 -0.7603  0.2922
 7160TIP3    H247592   0.288   2.513   7.132 -1.2449  0.5132 -0.1959
 7161TIP3   OH247593   2.898   3.935   1.641  0.3816 -0.1932  0.0346
 7161TIP3    H147594   2.907   3.854   1.691 -0.4225 -0.6857 -0.5827
 7161TIP3    H247595   2.905   4.004   1.706  2.7800 -0.6590  0.3721
 7162TIP3   OH247596   6.368   4.492   6.216  0.7817 -0.0851  0.0851
 7162TIP3    H147597   6.397   4.554   6.149 -0.8475 -0.6466 -1.2348
 7162TIP3    H247598   6.310   4.543   6.272  1.2331  0.1198  0.3636
 7163TIP3   OH247599   7.707   5.014   6.785 -0.0096  0.0653 -0.2209
 7163TIP3    H147600   7.687   4.930   6.827 -0.4864 -0.2860 -1.1297
 7163TIP3    H247601   7.644   5.021   6.714  0.3280  0.9857 -0.4425
 7164TIP3   OH247602   1.558   5.614   7.039 -0.0713  0.0714 -0.2715
 7164TIP3    H147603   1.577   5.687   7.097 -0.1489  0.6896 -1.0051
 7164TIP3    H247604   1.518   5.654   6.962  0.1064 -0.7194 -0.7909
 7165TIP3   OH247605   3.124   6.668   5.717 -0.3962 -0.2309  0.0962
 7165TIP3    H147606   3.196   6.665   5.655 -0.0283 -0.7461  0.5496
 7165TIP3    H247607   3.068   6.739   5.684  0.3458  0.2256 -0.2125
 7166TIP3   OH247608   2.198   1.130   6.848  0.0715 -0.3128  0.5591
 7166TIP3    H147609   2.186   1.217   6.887  4.8088  1.2206 -0.7520
 7166TIP3    H247610   2.250   1.082   6.912  1.2372 -0.5499 -0.5299
 7167TIP3   OH247611   5.619   5.938   7.517  0.6081  0.2991  0.1721
 7167TIP3    H147612   5.539   5.886   7.530  0.8575  0.1444  1.1479
 7167TIP3    H247613   5.687   5.873   7.501  0.7613  0.3637  0.5524
 7168TIP3   OH247614   6.382   5.143   7.388 -0.2377  0.3026  0.2750
 7168TIP3    H147615   6.396   5.195   7.309 -0.7257 -0.2695 -0.1981
 7168TIP3    H247616   6.397   5.204   7.460 -1.6306  1.3274 -0.2703
 7169TIP3   OH247617   4.637   1.477   2.499  0.4001 -0.3626  0.0240
 7169TIP3    H147618   4.566   1.452   2.439  0.9898 -2.0211 -0.0454
 7169TIP3    H247619   4.708   1.505   2.442  0.7087 -1.2418 -0.0307
 7170TIP3   OH247620   5.122   3.079   6.435 -0.0302  0.0252 -0.0240
 7170TIP3    H147621   5.121   3.018   6.509 -1.5949  0.2136  0.1465
 7170TIP3    H247622   5.133   3.165   6.475 -1.1502  0.1546  0.0430
 7171TIP3   OH247623   1.297   7.367   7.284  0.0913  0.3398 -0.7832
 7171TIP3    H147624   1.296   7.437   7.219  0.0740  2.9945  1.9055
 7171TIP3    H247625   1.386   7.368   7.318  0.2191 -1.3198 -0.9701
 7172TIP3   OH247626   6.414   3.810   0.149  0.3490  0.0690  1.2237
 7172TIP3    H147627   6.330   3.783   0.110  0.1107  1.1394  0.9719
 7172TIP3    H247628   6.453   3.728   0.178 -1.3855 -0.3613  2.5450
 7173TIP3   OH247629   1.925   3.711   6.032 -0.2618  0.2284  0.3404
 7173TIP3    H147630   1.874   3.690   6.111 -0.9637 -0.2733 -0.2389
 7173TIP3    H247631   1.986   3.638   6.024 -0.7327 -0.1321 -0.0254
 7174TIP3   OH247632   3.286   3.996   7.532 -0.3838  0.3270  0.2343
 7174TIP3    H147633   3.256   3.989   7.442  0.0858  0.1577  0.0856
 7174TIP3    H247634   3.234   3.932   7.580 -0.5386  0.3183  0.0557
 7175TIP3   OH247635   7.364   7.966   1.716  0.2369  0.2259 -0.7942
 7175TIP3    H147636   7.300   7.898   1.691  0.1456  0.1084 -0.2659
 7175TIP3    H247637   7.435   7.917   1.758  0.2044  0.4469 -0.4771
 7176TIP3   OH247638   6.108   5.429   0.428 -0.0393  0.9417  0.0037
 7176TIP3    H147639   6.126   5.499   0.366  1.4452  2.3254  1.8881
 7176TIP3    H247640   6.184   5.372   0.423  0.6131  1.6615  1.2834
 7177TIP3   OH247641   1.141   1.991   0.893  0.4233 -0.4127 -0.0713
 7177TIP3    H147642   1.122   1.999   0.986 -0.3388 -3.0149  0.0856
 7177TIP3    H247643   1.060   2.017   0.849  0.9319  1.2668 -0.0773
 7178TIP3   OH247644   2.269   6.808   7.937 -0.0363 -0.2615  0.6199
 7178TIP3    H147645   2.181   6.836   7.912  0.7195  1.1774 -0.5457
 7178TIP3    H247646   2.276   6.718   7.903 -0.8838 -0.2158  0.2986
 7179TIP3   OH247647   2.716   7.100   6.253  0.4958 -0.0824 -0.2905
 7179TIP3    H147648   2.792   7.128   6.203 -0.0283  1.6107 -0.2286
 7179TIP3    H247649   2.703   7.008   6.230  0.4591  0.5284 -3.0515
 7180TIP3   OH247650   7.712   7.045   7.088  0.1495 -0.0580  0.0880
 7180TIP3    H147651   7.755   6.979   7.142 -0.9531 -0.8810 -0.0121
 7180TIP3    H247652   7.675   6.996   7.015 -1.4485  0.5144  0.4725
 7181TIP3   OH247653   2.518   6.547   7.256  0.0039 -0.0569  0.3742
 7181TIP3    H147654   2.469   6.629   7.245  1.0689  0.9238  2.3805
 7181TIP3    H247655   2.591   6.570   7.312  1.2706 -2.0779 -0.3399
 7182TIP3   OH247656   0.972   6.211   5.560  0.4087  0.0522  0.0643
 7182TIP3    H147657   0.960   6.261   5.479 -1.1687  0.2663  0.4041
 7182TIP3    H247658   0.978   6.277   5.628 -0.6137 -0.1846  0.3913
 7183TIP3   OH247659   4.384   5.003   6.153  0.7668  0.0213 -0.1797
 7183TIP3    H147660   4.371   5.095   6.130  0.1887 -0.4527 -1.9848
 7183TIP3    H247661   4.382   4.957   6.069 -0.8364 -1.8639  0.8037
 7184TIP3   OH247662   7.528   3.987   1.632  0.1762  0.2433 -0.3660
 7184TIP3    H147663   7.500   4.027   1.715  1.7454 -0.0930  0.3603
 7184TIP3    H247664   7.535   4.061   1.572 -0.5249  0.5542 -0.0844
 7185TIP3   OH247665   3.930   5.633   6.220  0.3183 -0.3601 -0.3095
 7185TIP3    H147666   3.856   5.692   6.234  2.3063  1.7250  2.5924
 7185TIP3    H247667   3.957   5.649   6.129 -1.1556  0.7533 -0.5850
 7186TIP3   OH247668   3.960   5.474   7.212 -0.2539 -0.3222 -0.1548
 7186TIP3    H147669   3.928   5.525   7.138  0.7227  0.6927  0.0868
 7186TIP3    H247670   4.047   5.444   7.184  0.1579  0.1441  0.5936
 7187TIP3   OH247671   1.320   1.843   0.712 -0.0665 -0.3629 -0.2242
 7187TIP3    H147672   1.235   1.856   0.754 -0.3241 -2.3485 -0.0660
 7187TIP3    H247673   1.384   1.870   0.778 -0.5305  0.0298  0.0736
 7188TIP3   OH247674   0.282   0.020   6.593  0.6213 -0.0819  0.2110
 7188TIP3    H147675   0.249  -0.007   6.679  0.3236 -0.6102 -0.0663
 7188TIP3    H247676   0.230   0.096   6.570 -1.4206 -1.7134 -0.8484
 7189TIP3   OH247677   0.022   2.294   6.926  0.0891 -0.0676 -0.3858
 7189TIP3    H147678  -0.004   2.378   6.888  0.9160  0.6938  0.6672
 7189TIP3    H247679   0.100   2.314   6.978  0.9833 -1.6900 -0.9890
 7190TIP3   OH247680   5.660   5.025   1.787  0.2249  0.2748  0.0023
 7190TIP3    H147681   5.742   4.979   1.806  0.6959  0.7884 -0.7842
 7190TIP3    H247682   5.611   4.965   1.731 -0.5537 -0.6242  1.5561
 7191TIP3   OH247683   1.420   0.194   0.434  0.2280  0.0745 -0.5986
 7191TIP3    H147684   1.470   0.265   0.395  0.1127  0.2009 -0.5166
 7191TIP3    H247685   1.335   0.197   0.391  0.0061  0.3906 -0.1392
 7192TIP3   OH247686   7.200   6.003   7.139  0.1348 -0.5046  0.3102
 7192TIP3    H147687   7.256   6.079   7.156 -4.0748  2.8115  1.0179
 7192TIP3    H247688   7.174   6.014   7.047 -0.6173 -1.0413  0.4569
 7193TIP3   OH247689   7.225   6.052   0.013 -0.4074  0.0759 -0.1431
 7193TIP3    H147690   7.178   6.041  -0.070 -0.5614  1.0233 -0.1956
 7193TIP3    H247691   7.318   6.054  -0.012 -0.3689 -1.0611 -0.1232
 7194TIP3   OH247692   6.862   5.833   5.671 -0.4777 -0.0900  0.2671
 7194TIP3    H147693   6.852   5.826   5.766  1.0843 -0.8377  0.4035
 7194TIP3    H247694   6.924   5.906   5.659  1.5407 -1.7499  0.0154
 7195TIP3   OH247695   5.707   2.910   0.460 -0.8312 -0.1777  0.3229
 7195TIP3    H147696   5.674   2.985   0.510 -0.1506 -1.6474  3.1877
 7195TIP3    H247697   5.686   2.834   0.514 -2.0518 -2.2226 -2.7349
 7196TIP3   OH247698   3.700   2.194   0.343  0.6893  0.2011  0.3657
 7196TIP3    H147699   3.760   2.160   0.409 -1.3182 -1.1465  1.5958
 7196TIP3    H247700   3.678   2.118   0.289  0.2721  0.7190 -0.2083
 7197TIP3   OH247701   3.851   0.913   6.990 -0.1163  0.0893  0.3429
 7197TIP3    H147702   3.826   0.837   7.043 -1.3047  0.0913 -0.1647
 7197TIP3    H247703   3.939   0.934   7.018 -0.2873 -0.6207  1.4942
 7198TIP3   OH247704   5.978   7.509   1.071  0.3573 -0.2700  0.6486
 7198TIP3    H147705   6.041   7.569   1.032 -0.4615  0.6363  0.6601
 7198TIP3    H247706   5.957   7.447   1.001 -0.2956  0.6941 -0.0465
 7199TIP3   OH247707   5.923   0.559   0.865 -0.2205  0.0012  0.3109
 7199TIP3    H147708   5.919   0.473   0.905 -1.4988  0.1080  0.4451
 7199TIP3    H247709   6.012   0.590   0.884 -0.9669  0.4325  3.9086
 7200TIP3   OH247710   1.356   7.950   0.829  0.7313  0.2811  0.1271
 7200TIP3    H147711   1.384   8.020   0.771  1.5805 -0.4728 -0.3899
 7200TIP3    H247712   1.359   7.871   0.775 -1.4968  0.0019  0.3028
 7201TIP3   OH247713   0.782   2.196   7.007 -0.7441  0.1796 -0.2694
 7201TIP3    H147714   0.781   2.144   6.926 -5.2668 -2.7838  1.2750
 7201TIP3    H247715   0.737   2.277   6.983 -1.5939 -0.4532 -0.9195
 7202TIP3   OH247716   4.571   4.139   0.921  0.7803  0.5456  0.3520
 7202TIP3    H147717   4.618   4.214   0.957  1.4870  0.5170 -0.4832
 7202TIP3    H247718   4.569   4.075   0.993  2.8612  0.1746  0.1317
 7203TIP3   OH247719   1.669   3.514   6.066  0.0746 -0.5591 -0.4793
 7203TIP3    H147720   1.753   3.468   6.069  0.2666 -0.2812 -1.2998
 7203TIP3    H247721   1.621   3.480   6.142  0.1770 -2.1677 -1.0766
 7204TIP3   OH247722   5.590   2.990   2.588  0.3592 -0.1396 -0.5527
 7204TIP3    H147723   5.586   2.952   2.500  0.7258 -0.1236 -0.5780
 7204TIP3    H247724   5.498   2.998   2.615  0.2614 -0.5367 -0.7639
 7205TIP3   OH247725   4.978   6.524   0.526  0.3913 -0.2167 -0.2762
 7205TIP3    H147726   4.950   6.435   0.546  3.0545 -1.1827 -0.5061
 7205TIP3    H247727   4.986   6.527   0.431  0.8228  0.0833 -0.2353
 7206TIP3   OH247728   8.089   2.386   6.122  0.5410 -0.1624 -0.0702
 7206TIP3    H147729   8.130   2.300   6.126  2.1696  0.6414  2.4317
 7206TIP3    H247730   8.157   2.443   6.086 -0.4147  0.1828 -1.4043
 7207TIP3   OH247731   0.404   5.570   0.117  0.3161 -0.4421 -0.3549
 7207TIP3    H147732   0.337   5.635   0.094 -0.4174 -1.4107 -1.0434
 7207TIP3    H247733   0.467   5.619   0.169 -0.0767  0.8936 -1.0760
 7208TIP3   OH247734   0.614   6.700   6.139 -0.7105  0.5789 -0.2157
 7208TIP3    H147735   0.567   6.780   6.114 -0.5034  1.1853  1.2496
 7208TIP3    H247736   0.696   6.705   6.090 -1.3025  0.5173 -1.2488
 7209TIP3   OH247737   2.211   5.947   7.575  0.5724 -0.2944  0.3958
 7209TIP3    H147738   2.213   5.852   7.567  0.1741 -0.3238  0.6086
 7209TIP3    H247739   2.295   5.970   7.615 -0.4418 -0.8240  2.9924
 7210TIP3   OH247740   3.300   6.728   0.192  0.2250 -0.0482 -0.4695
 7210TIP3    H147741   3.383   6.775   0.203  0.0627 -0.0806  1.1667
 7210TIP3    H247742   3.245   6.788   0.141  0.9377  0.3901 -0.7355
 7211TIP3   OH247743   4.816   1.759   0.056  0.3840  0.0082 -0.0413
 7211TIP3    H147744   4.819   1.845   0.097 -1.1866 -0.4489  1.1219
 7211TIP3    H247745   4.724   1.747   0.033  1.0788 -0.0459 -3.1865
 7212TIP3   OH247746   6.760   2.141   1.052  0.2836 -1.3978 -0.1971
 7212TIP3    H147747   6.755   2.213   1.115  2.1484 -1.4055  0.0116
 7212TIP3    H247748   6.671   2.132   1.019 -0.1639  0.4702  0.3650
 7213TIP3   OH247749   1.938   0.119   1.159 -0.1498  0.1223 -0.3544
 7213TIP3    H147750   2.031   0.120   1.137 -0.2258  2.1971 -0.7859
 7213TIP3    H247751   1.894   0.091   1.079  0.0175  0.7705 -0.6791
 7214TIP3   OH247752   6.119   5.251   1.675 -0.0068  0.1989 -0.3298
 7214TIP3    H147753   6.186   5.226   1.611  0.9193  0.1888  0.6170
 7214TIP3    H247754   6.054   5.299   1.624  1.1590  0.9681 -1.1492
 7215TIP3   OH247755   5.246   4.194   0.560  0.1815 -0.7873 -0.2602
 7215TIP3    H147756   5.246   4.125   0.626  0.4503 -0.4473  0.1013
 7215TIP3    H247757   5.325   4.244   0.578  0.0443 -0.4476 -0.5875
 7216TIP3   OH247758   1.757   3.138   6.848  0.5725  0.2718 -0.2216
 7216TIP3    H147759   1.850   3.155   6.863  0.6908 -1.0724  0.7826
 7216TIP3    H247760   1.737   3.182   6.766  1.5043  2.5798  0.7257
 7217TIP3   OH247761   3.242   7.027   6.421 -0.0087 -0.1377  0.0393
 7217TIP3    H147762   3.267   7.103   6.474  0.2269 -0.7712  0.8521
 7217TIP3    H247763   3.321   6.974   6.416  0.4266  0.6210 -2.2399
 7218TIP3   OH247764   4.906   0.174   1.634 -0.1736  0.2459  0.0901
 7218TIP3    H147765   4.913   0.258   1.588 -0.5847 -0.0272 -0.4740
 7218TIP3    H247766   4.994   0.159   1.669  0.1268  0.4916 -0.5467
 7219TIP3   OH247767   1.679   1.393   6.968  0.2897 -0.3730  0.0183
 7219TIP3    H147768   1.692   1.481   6.933  3.1458 -0.7239 -0.0381
 7219TIP3    H247769   1.587   1.374   6.950 -0.1210  2.1339 -1.0004
 7220TIP3   OH247770   6.671   1.300   7.405 -0.2368 -0.7486  0.0225
 7220TIP3    H147771   6.715   1.252   7.335 -0.3369 -1.8626  0.7018
 7220TIP3    H247772   6.633   1.232   7.461 -1.2563  0.1471  0.4552
 7221TIP3   OH247773   6.760   3.211   0.198  0.3879 -0.0013  0.0922
 7221TIP3    H147774   6.795   3.277   0.258  1.1088  0.3983 -0.7504
 7221TIP3    H247775   6.835   3.157   0.176  0.0287 -0.4280 -0.0944
 7222TIP3   OH247776   7.816   4.365   6.843 -0.3988 -0.1132  0.1391
 7222TIP3    H147777   7.863   4.448   6.828  0.6076 -0.9954 -1.9323
 7222TIP3    H247778   7.875   4.316   6.901  1.0752 -0.9784 -1.9753
 7223TIP3   OH247779   5.014   0.995   7.183  0.2136 -0.3178 -0.3497
 7223TIP3    H147780   4.983   0.980   7.094  2.4640  0.2077 -1.2942
 7223TIP3    H247781   5.026   1.090   7.190  1.6166 -0.4790 -0.1044
 7224TIP3   OH247782   0.059   7.773   0.237  0.4943  0.1155  0.0373
 7224TIP3    H147783   0.134   7.736   0.190  0.1518 -0.3655 -0.1343
 7224TIP3    H247784   0.033   7.704   0.299  1.7457  1.2003  1.8855
 7225TIP3   OH247785   4.927   6.110   7.127 -0.2503 -0.2025 -0.0495
 7225TIP3    H147786   4.886   6.194   7.145 -0.9274 -0.5403  0.0024
 7225TIP3    H247787   4.875   6.072   7.056  1.3068  0.3288 -1.5479
 7226TIP3   OH247788   2.799   2.857   6.897  0.0867  0.7075  0.2074
 7226TIP3    H147789   2.819   2.939   6.852 -2.2109  1.5866  0.6785
 7226TIP3    H247790   2.885   2.825   6.926  1.0261  3.1612  0.3877
 7227TIP3   OH247791   3.179   2.900   1.669 -0.2637  0.0020 -0.1235
 7227TIP3    H147792   3.192   2.825   1.728  0.5904 -0.3372 -0.7112
 7227TIP3    H247793   3.135   2.965   1.723 -1.7434 -1.2002  0.1823
 7228TIP3   OH247794   1.529   5.201   1.103 -0.4361 -0.1272 -0.6151
 7228TIP3    H147795   1.577   5.118   1.104  1.4284  0.9118 -0.7034
 7228TIP3    H247796   1.533   5.231   1.012 -1.2512 -0.0033 -0.6205
 7229TIP3   OH247797   3.515   0.492   5.320 -0.3329  0.2042 -0.0498
 7229TIP3    H147798   3.485   0.563   5.264  1.3599  1.3899  0.4677
 7229TIP3    H247799   3.511   0.529   5.409 -0.3633 -0.6967  0.3313
 7230TIP3   OH247800   6.857   0.928   7.196  0.1507  0.4114  0.3302
 7230TIP3    H147801   6.891   0.870   7.265  0.5874  2.1864  1.6838
 7230TIP3    H247802   6.924   0.996   7.187 -0.0865  0.4485 -1.6104
 7231TIP3   OH247803   0.949   4.962   6.686 -0.0575  0.1224 -0.2513
 7231TIP3    H147804   0.856   4.965   6.709 -0.0651  0.7534 -0.3352
 7231TIP3    H247805   0.951   4.975   6.591  0.1114 -0.0511 -0.2737
 7232TIP3   OH247806   0.802   5.634   5.884 -0.4408 -0.1694 -0.4745
 7232TIP3    H147807   0.800   5.572   5.812  0.3310  0.1649 -0.7981
 7232TIP3    H247808   0.855   5.707   5.852  1.1606 -0.6460  0.9215
 7233TIP3   OH247809   2.786   6.373   7.233 -0.2135 -0.4586  0.0412
 7233TIP3    H147810   2.860   6.410   7.185  1.4288 -2.5099  0.8152
 7233TIP3    H247811   2.729   6.336   7.166  2.3153 -3.7859 -0.5246
 7234TIP3   OH247812   0.981   5.936   1.534 -0.0430  0.3308  0.7178
 7234TIP3    H147813   0.918   5.865   1.545 -1.7841  1.3797 -1.8348
 7234TIP3    H247814   0.947   6.007   1.589  0.8255 -0.1769  1.9820
 7235TIP3   OH247815   3.825   3.458   5.869  0.2429 -0.6225  0.1915
 7235TIP3    H147816   3.913   3.495   5.874  0.7149 -1.8562  1.6514
 7235TIP3    H247817   3.810   3.446   5.775  2.0687 -1.3724 -0.0510
 7236TIP3   OH247818   6.413   6.740   0.509 -0.0723  0.5207 -0.3380
 7236TIP3    H147819   6.463   6.796   0.568  1.9174 -0.5710 -0.8778
 7236TIP3    H247820   6.379   6.799   0.442  0.6043  1.2945 -0.0187
 7237TIP3   OH247821   5.641   3.349   2.014 -0.3954 -0.2468  0.5886
 7237TIP3    H147822   5.654   3.301   1.933 -2.5812  1.9628 -1.2213
 7237TIP3    H247823   5.595   3.287   2.071 -1.0276 -1.0601 -0.7599
 7238TIP3   OH247824   2.495   6.873   0.499  0.0797 -0.2109 -0.2714
 7238TIP3    H147825   2.578   6.909   0.530  0.1489 -1.2647  0.8455
 7238TIP3    H247826   2.462   6.939   0.439  0.1447  1.7825  1.7381
 7239TIP3   OH247827   4.659   1.262   1.662  0.0980 -0.3415 -0.0617
 7239TIP3    H147828   4.715   1.266   1.585 -1.2824  0.1820 -1.0897
 7239TIP3    H247829   4.646   1.169   1.678 -0.9964 -0.4780 -1.5602
 7240TIP3   OH247830   0.745   7.218   6.161 -0.2984 -0.0248 -0.1986
 7240TIP3    H147831   0.797   7.190   6.086  0.1206 -0.4457  0.2409
 7240TIP3    H247832   0.661   7.244   6.124  0.7333  2.1846 -1.1134
 7241TIP3   OH247833   4.500   4.492   7.084  0.0578  0.1527  0.3343
 7241TIP3    H147834   4.515   4.587   7.087 -0.5406  0.2886 -0.5527
 7241TIP3    H247835   4.534   4.460   7.167 -1.3268  1.3666  1.4188
 7242TIP3   OH247836   4.648   2.829   7.776 -0.0285 -0.9300  0.0894
 7242TIP3    H147837   4.573   2.819   7.718  0.5231 -0.2334 -0.7696
 7242TIP3    H247838   4.724   2.813   7.721  0.5089 -0.1849  0.5833
 7243TIP3   OH247839   0.411   4.145   0.760  0.2031  0.1249 -0.3401
 7243TIP3    H147840   0.417   4.134   0.855  0.0780 -0.0608 -0.3551
 7243TIP3    H247841   0.383   4.236   0.748 -0.0630  0.0624 -0.1926
 7244TIP3   OH247842   0.327   5.224   5.807  0.3943  0.0905  0.0305
 7244TIP3    H147843   0.330   5.317   5.830 -1.3390  0.6735 -1.8274
 7244TIP3    H247844   0.234   5.202   5.806  0.7128 -1.3574 -0.6843
 7245TIP3   OH247845   2.798   3.539   0.046  0.5883  0.4331  0.2575
 7245TIP3    H147846   2.777   3.510  -0.043  2.0185 -0.8301  0.2836
 7245TIP3    H247847   2.841   3.624   0.033 -0.7688  1.0898 -0.0916
 7246TIP3   OH247848   5.056   5.758   5.964  0.7617 -0.6441 -0.3013
 7246TIP3    H147849   4.979   5.701   5.966  0.0701  0.2496 -0.7304
 7246TIP3    H247850   5.072   5.780   6.056  0.3394 -0.6217 -0.2311
 7247TIP3   OH247851   2.332   7.383   1.924  0.0662  0.1886 -0.0718
 7247TIP3    H147852   2.354   7.366   2.015  0.5286 -0.0170 -0.2187
 7247TIP3    H247853   2.410   7.356   1.875  0.1558  1.1084 -0.4550
 7248TIP3   OH247854   0.875   3.674   6.582  0.2980  0.3937 -0.4761
 7248TIP3    H147855   0.784   3.664   6.611 -0.0645  1.7587 -1.0731
 7248TIP3    H247856   0.922   3.697   6.662  0.2070 -0.7328 -0.0846
 7249TIP3   OH247857   3.567   3.223   7.858 -0.0405 -0.0875 -1.0931
 7249TIP3    H147858   3.529   3.286   7.796 -2.0719  0.3601  0.4884
 7249TIP3    H247859   3.571   3.141   7.809 -0.0391  0.6291 -2.3261
 7250TIP3   OH247860   4.382   3.568   5.982 -0.1813  0.3697  0.4858
 7250TIP3    H147861   4.368   3.629   5.909  0.0533 -0.1399  0.0145
 7250TIP3    H247862   4.477   3.556   5.986 -0.3084 -1.2738 -0.5207
 7251TIP3   OH247863   1.511   7.003   0.680  0.4747 -0.3218  0.1321
 7251TIP3    H147864   1.523   7.049   0.597  0.0975  0.9340  0.7440
 7251TIP3    H247865   1.416   6.991   0.687  0.5197 -0.5969  0.2965
 7252TIP3   OH247866   0.535   2.361   7.860  0.1703  0.1962 -0.4864
 7252TIP3    H147867   0.565   2.441   7.903 -0.0266  0.3666 -0.6581
 7252TIP3    H247868   0.447   2.347   7.895  0.0723  0.2456 -0.7063
 7253TIP3   OH247869   6.432   7.937   0.794  0.7590  0.0625  0.0702
 7253TIP3    H147870   6.430   8.001   0.723  2.6841 -0.3386 -0.3959
 7253TIP3    H247871   6.446   7.988   0.873  0.6275  0.3533 -0.0941
 7254TIP3   OH247872   3.565   2.467   1.299  0.2803  0.0781 -0.5965
 7254TIP3    H147873   3.515   2.407   1.355 -2.0640 -0.3032 -2.9182
 7254TIP3    H247874   3.597   2.412   1.228  1.3878  0.9322 -0.7847
 7255TIP3   OH247875   4.974   1.683   1.381 -0.1567  0.4344 -0.0545
 7255TIP3    H147876   5.069   1.693   1.383 -0.1575  0.5050 -0.2758
 7255TIP3    H247877   4.950   1.703   1.290 -0.5677  2.1107  0.3840
 7256TIP3   OH247878   5.173   5.861   0.967  0.2903 -0.2520 -0.3735
 7256TIP3    H147879   5.079   5.871   0.951 -0.0459  0.0714  1.5724
 7256TIP3    H247880   5.214   5.934   0.921 -0.3858 -0.5073 -1.3916
 7257TIP3   OH247881   4.396   4.391   0.182 -0.7307  0.1002  0.1355
 7257TIP3    H147882   4.457   4.451   0.225  1.9663 -1.4777 -1.2035
 7257TIP3    H247883   4.389   4.424   0.093  0.7438 -1.4436 -0.6003
 7258TIP3   OH247884   7.910   2.736   7.664 -0.3132 -0.4813  0.3071
 7258TIP3    H147885   8.005   2.744   7.669 -0.1911 -0.9879 -0.8623
 7258TIP3    H247886   7.887   2.773   7.579 -0.9841 -1.7308 -0.0837
 7259TIP3   OH247887   4.837   4.787   6.805  0.6141 -0.0589 -0.2820
 7259TIP3    H147888   4.849   4.868   6.756 -1.1125 -1.1272 -2.6877
 7259TIP3    H247889   4.819   4.721   6.738 -1.5988 -1.7218  1.7707
 7260TIP3   OH247890   7.220   4.288   1.955 -0.7573 -0.1542 -0.1899
 7260TIP3    H147891   7.181   4.255   2.036 -0.4647  1.9115  0.8491
 7260TIP3    H247892   7.184   4.376   1.945 -0.1050 -0.0452 -1.8419
 7261TIP3   OH247893   2.388   3.528   1.235 -0.1102  0.0523 -0.1865
 7261TIP3    H147894   2.312   3.486   1.197  0.1642  0.7969 -1.6357
 7261TIP3    H247895   2.393   3.613   1.191  1.7983 -0.1546 -0.4626
 7262TIP3   OH247896   0.311   3.131   0.779 -0.5927  0.0796  0.3338
 7262TIP3    H147897   0.382   3.078   0.741  0.9786  1.8936  0.5886
 7262TIP3    H247898   0.340   3.149   0.869 -1.2013  1.1138  0.3361
 7263TIP3   OH247899   1.715   3.702   6.469  0.1112 -0.4677 -0.4406
 7263TIP3    H147900   1.725   3.754   6.389 -0.5250  1.6435  0.7895
 7263TIP3    H247901   1.633   3.654   6.457 -0.6194  0.7757 -0.5865
 7264TIP3   OH247902   1.231   1.605   7.856  0.7289 -0.0709 -0.1394
 7264TIP3    H147903   1.223   1.657   7.936  0.7128  0.9045 -0.7593
 7264TIP3    H247904   1.319   1.626   7.823  0.3147  0.4131 -0.9674
 7265TIP3   OH247905   0.756   7.198   1.417  0.8484 -0.1196  0.3325
 7265TIP3    H147906   0.758   7.112   1.458  2.4824 -0.6462 -0.7454
 7265TIP3    H247907   0.843   7.235   1.434  0.7053  0.6565 -0.5211
 7266TIP3   OH247908   2.664   7.623   0.693  0.4152 -0.3443 -0.2774
 7266TIP3    H147909   2.719   7.685   0.644 -0.2991 -0.1603 -0.8686
 7266TIP3    H247910   2.727   7.568   0.741  1.1591 -0.6089 -1.4961
 7267TIP3   OH247911   4.947   4.335   0.579 -0.1522  0.3270  0.3716
 7267TIP3    H147912   4.896   4.272   0.629 -1.7418  1.1431 -0.1432
 7267TIP3    H247913   4.964   4.406   0.640  3.1312 -1.2316  1.4805
 7268TIP3   OH247914   0.514   4.834   7.064  0.0339  0.2617  0.0975
 7268TIP3    H147915   0.492   4.746   7.032 -0.3310  0.0858  0.8134
 7268TIP3    H247916   0.488   4.893   6.994  1.3938 -0.2873 -0.9083
 7269TIP3   OH247917   5.841   1.856   2.080 -0.3901 -0.1009 -0.0473
 7269TIP3    H147918   5.916   1.806   2.113 -0.6183  0.5109  1.4692
 7269TIP3    H247919   5.768   1.793   2.082 -0.8579  0.4172  2.6129
 7270TIP3   OH247920   3.890   1.605   6.001  0.3143  0.0467  0.0536
 7270TIP3    H147921   3.964   1.547   5.988  0.7450  0.1599  1.7263
 7270TIP3    H247922   3.915   1.687   5.960  1.1944  0.1295  0.7349
 7271TIP3   OH247923   4.045   6.125   5.946  0.4433  0.3520 -0.7348
 7271TIP3    H147924   4.130   6.152   5.910  1.4131 -1.7374 -0.1876
 7271TIP3    H247925   4.019   6.050   5.893 -0.6241  0.4011 -0.3102
 7272TIP3   OH247926   6.659   7.737   6.051  0.2623  0.6515 -0.3223
 7272TIP3    H147927   6.698   7.665   6.001 -2.0893 -0.4803 -0.6821
 7272TIP3    H247928   6.688   7.816   6.005  0.3662 -0.2273 -1.8498
 7273TIP3   OH247929   4.089   1.595   0.016  0.2304  0.6534 -0.9028
 7273TIP3    H147930   4.081   1.618   0.108  1.7609  0.6514 -0.7544
 7273TIP3    H247931   4.018   1.644  -0.027 -0.1973  1.0248  0.1905
 7274TIP3   OH247932   7.351   0.736   5.975  0.2328  0.4595 -0.5456
 7274TIP3    H147933   7.382   0.691   5.896  1.4942  0.6624 -0.1882
 7274TIP3    H247934   7.364   0.673   6.046  0.5635  0.8310 -0.2703
 7275TIP3   OH247935   6.914   3.000   1.210  0.1145 -0.0208  0.0475
 7275TIP3    H147936   6.969   2.951   1.149  0.5811 -1.2317  1.3696
 7275TIP3    H247937   6.825   2.970   1.190  0.1027  0.6071 -0.9093
 7276TIP3   OH247938   6.286   2.158   0.215  0.5137  0.4279 -0.0352
 7276TIP3    H147939   6.333   2.237   0.188  0.5288  1.0568  1.6978
 7276TIP3    H247940   6.237   2.185   0.293 -0.7771 -0.8627 -0.3489
 7277TIP3   OH247941   5.601   3.115   7.628  0.0927 -0.5056 -0.2786
 7277TIP3    H147942   5.541   3.186   7.652  1.4849  0.4396  0.4993
 7277TIP3    H247943   5.557   3.070   7.556 -1.5525  0.1479  0.2774
 7278TIP3   OH247944   8.046   3.651   0.976 -0.6700 -0.0018  0.0523
 7278TIP3    H147945   7.997   3.631   1.056  0.1780 -0.4143  0.4801
 7278TIP3    H247946   8.083   3.567   0.950 -0.7867  0.1717 -0.6736
 7279TIP3   OH247947   6.541   7.889   2.115 -0.5270 -0.3969  0.6644
 7279TIP3    H147948   6.563   7.916   2.204 -0.5804 -0.1691  0.6095
 7279TIP3    H247949   6.475   7.820   2.126 -1.2407  0.2954  0.7743
 7280TIP3   OH247950   2.258   3.873   7.441 -0.2523 -0.0596  0.2635
 7280TIP3    H147951   2.326   3.899   7.379  0.6879  1.3760  1.7794
 7280TIP3    H247952   2.270   3.778   7.452  2.7033  0.3574  1.6941
 7281TIP3   OH247953   1.349   6.660   7.869  0.0158 -0.2635  0.2817
 7281TIP3    H147954   1.333   6.751   7.844 -1.8935  0.0924  2.4727
 7281TIP3    H247955   1.425   6.664   7.927  0.7585 -0.2911 -0.6608
 7282TIP3   OH247956   1.453   3.666   6.351 -0.2461 -0.3234  0.3558
 7282TIP3    H147957   1.452   3.587   6.297 -1.3362  0.2249 -0.4618
 7282TIP3    H247958   1.442   3.738   6.289 -0.3378  0.4079  1.1936
 7283TIP3   OH247959   2.937   2.228   5.896 -0.0990 -0.1420 -0.5705
 7283TIP3    H147960   2.843   2.218   5.911  0.3733 -1.2231  2.3720
 7283TIP3    H247961   2.960   2.157   5.836 -0.7613 -1.7773  1.0163
 7284TIP3   OH247962   0.091   7.971   1.713  0.0574  0.2197  0.0204
 7284TIP3    H147963   0.121   7.881   1.726 -1.1002 -0.4890 -1.8760
 7284TIP3    H247964   0.155   8.009   1.652 -0.1835  0.2555 -0.2116
 7285TIP3   OH247965   6.241   6.590   0.056 -0.2736  0.2998 -0.5122
 7285TIP3    H147966   6.287   6.608  -0.026 -1.9305 -0.9001 -1.7864
 7285TIP3    H247967   6.279   6.508   0.087 -1.6425 -0.8812 -1.7488
 7286TIP3   OH247968   8.064   6.797   0.024 -0.2320  0.0726  0.0315
 7286TIP3    H147969   7.976   6.835   0.027 -0.1934  0.1097  1.1770
 7286TIP3    H247970   8.107   6.830   0.103  0.7270 -0.1572 -0.3758
 7287TIP3   OH247971   6.934   1.340   1.318  0.2191 -0.0452 -0.3418
 7287TIP3    H147972   6.880   1.299   1.386  0.2790 -0.2279 -0.4027
 7287TIP3    H247973   7.023   1.336   1.353  0.3504 -0.7788 -0.7261
 7288TIP3   OH247974   7.035   5.130   1.718  0.1309  0.5871  0.3194
 7288TIP3    H147975   6.948   5.151   1.751  0.4629  0.4807  1.2902
 7288TIP3    H247976   7.053   5.043   1.754  1.3311  1.3182  1.5960
 7289TIP3   OH247977   7.383   4.481   1.160 -0.7887  0.0480 -0.6566
 7289TIP3    H147978   7.400   4.393   1.193 -0.6988  0.5886  0.8177
 7289TIP3    H247979   7.462   4.504   1.111  0.1512  0.1274  0.8200
 7290TIP3   OH247980   4.476   0.718   1.344 -0.1161 -0.9006  0.1407
 7290TIP3    H147981   4.557   0.740   1.390 -0.3795 -0.6958  0.5130
 7290TIP3    H247982   4.441   0.802   1.315 -0.6389 -0.8935  0.7474
 7291TIP3   OH247983   4.032   4.382   6.577  0.1498 -0.0386  0.4053
 7291TIP3    H147984   4.062   4.472   6.585 -0.1730  0.0057  1.2349
 7291TIP3    H247985   3.970   4.383   6.504 -1.5950  0.9050  1.8242
 7292TIP3   OH247986   5.077   5.461   0.237  0.0353 -0.0968 -0.2710
 7292TIP3    H147987   5.139   5.478   0.308 -0.5332 -0.4419  0.3224
 7292TIP3    H247988   5.054   5.547   0.203 -0.2345  0.1162  0.4470
 7293TIP3   OH247989   0.945   3.080   7.257 -0.0901  0.5570 -0.5733
 7293TIP3    H147990   0.935   3.152   7.194 -1.0217  0.0497 -1.0344
 7293TIP3    H247991   0.926   3.120   7.342 -0.2422  0.9427 -0.7862
 7294TIP3   OH247992   6.046   2.099   6.775  0.3076 -0.2530  0.1073
 7294TIP3    H147993   6.012   2.010   6.762  1.1585 -0.5592 -0.0855
 7294TIP3    H247994   6.139   2.086   6.795 -0.0763  0.4153  2.6479
 7295TIP3   OH247995   0.061   2.885   0.246 -0.4810  0.2994  0.0959
 7295TIP3    H147996   0.055   2.864   0.339 -0.4770 -3.0817 -0.5449
 7295TIP3    H247997   0.154   2.875   0.225 -0.6195  0.1007 -0.4513
 7296TIP3   OH247998   3.388   6.908   7.587 -0.1504  0.2620  0.2150
 7296TIP3    H147999   3.380   6.996   7.552  0.0775  0.6270  1.0561
 7296TIP3    H248000   3.371   6.918   7.681  0.8787 -0.4203  0.4897
 7297TIP3   OH248001   6.938   2.597   7.199 -0.1587 -0.4057 -0.1879
 7297TIP3    H148002   6.909   2.509   7.173 -1.8418  0.2061 -0.5118
 7297TIP3    H248003   6.859   2.651   7.192  0.4996  0.8398  1.4405
 7298TIP3   OH248004   6.241   0.655   5.968  0.1995 -0.1344  0.0971
 7298TIP3    H148005   6.243   0.585   5.902  0.8821 -1.1298  1.1364
 7298TIP3    H248006   6.334   0.673   5.987  0.1404  2.4125 -1.4872
 7299TIP3   OH248007   5.335   5.029   6.483  0.3091  0.8199 -0.6757
 7299TIP3    H148008   5.401   4.997   6.545 -0.7104 -0.1816 -0.0544
 7299TIP3    H248009   5.318   5.119   6.510  0.9432  0.8699 -0.4316
 7300TIP3   OH248010   7.942   4.608   6.963 -0.7754  0.4922  0.0912
 7300TIP3    H148011   7.888   4.665   7.018 -0.3583  0.1378  0.8803
 7300TIP3    H248012   8.018   4.587   7.018 -0.5183 -0.1383 -0.4974
 7301TIP3   OH248013   6.168   2.217   6.565  0.3231 -0.1163 -0.3236
 7301TIP3    H148014   6.129   2.176   6.643 -1.0215  0.5298 -0.6191
 7301TIP3    H248015   6.198   2.143   6.513 -2.2532 -0.8565 -0.9391
 7302TIP3   OH248016   0.803   7.437   7.728 -0.0471 -0.1727  0.0256
 7302TIP3    H148017   0.803   7.427   7.633  0.8270 -0.4703  0.0530
 7302TIP3    H248018   0.895   7.450   7.751 -0.4062  1.3449  0.6940
 7303TIP3   OH248019   7.714   2.373   1.079 -0.7433  0.5359 -0.2188
 7303TIP3    H148020   7.623   2.360   1.105 -0.6015  0.6076  0.3383
 7303TIP3    H248021   7.710   2.391   0.985 -1.1250 -1.3810 -0.6075
 7304TIP3   OH248022   4.710   6.791   0.948  0.0222  0.1742  0.1741
 7304TIP3    H148023   4.641   6.789   0.882  0.3035  0.4952 -0.1336
 7304TIP3    H248024   4.786   6.752   0.904  0.0254 -0.2240  0.5260
 7305TIP3   OH248025   4.267   5.553   5.871 -0.1005 -0.6230  0.1401
 7305TIP3    H148026   4.226   5.476   5.832  1.5073 -1.1163 -0.6704
 7305TIP3    H248027   4.298   5.605   5.797  1.4619 -0.7095  0.6781
 7306TIP3   OH248028   5.995   6.268   1.315 -0.7446 -0.5644  0.3362
 7306TIP3    H148029   5.908   6.255   1.277  0.0126 -1.0333 -1.3394
 7306TIP3    H248030   6.020   6.356   1.286 -0.8728 -0.1852  1.3230
 7307TIP3   OH248031   2.862   7.396   5.421 -0.2041 -0.3108 -0.2268
 7307TIP3    H148032   2.895   7.468   5.473 -0.1132 -0.6378  0.1710
 7307TIP3    H248033   2.810   7.343   5.481  2.1550 -2.2362  0.3060
 7308TIP3   OH248034   6.817   0.830   1.546 -0.0888 -0.2594  0.0712
 7308TIP3    H148035   6.792   0.800   1.459  0.9417 -1.7599  0.2528
 7308TIP3    H248036   6.758   0.783   1.605 -1.0206  1.0170  0.1982
 7309TIP3   OH248037   7.093   6.992   0.679  0.0553 -0.2092 -0.2304
 7309TIP3    H148038   7.182   7.013   0.651  0.0740 -0.2827 -0.2279
 7309TIP3    H248039   7.074   6.908   0.636  0.3147 -0.6326  0.4517
 7310TIP3   OH248040   6.270   3.506   7.873 -0.0596 -0.2599  0.3458
 7310TIP3    H148041   6.248   3.421   7.912 -2.1071 -0.5932 -1.3192
 7310TIP3    H248042   6.236   3.570   7.936  0.5564 -0.6805  1.1209
 7311TIP3   OH248043   6.129   2.005   6.220  0.4840  0.5719  0.2033
 7311TIP3    H148044   6.183   2.074   6.180 -0.6707  0.4906 -1.5834
 7311TIP3    H248045   6.123   1.938   6.152 -1.2328  0.2451  0.6577
 7312TIP3   OH248046   4.342   1.883   0.290  0.0906  0.1549  0.0407
 7312TIP3    H148047   4.406   1.815   0.311  1.2739  1.1800 -0.1182
 7312TIP3    H248048   4.279   1.880   0.361  0.9529 -0.1444  0.8181
 7313TIP3   OH248049   1.698   5.725   5.889  0.5365  0.4734  0.2399
 7313TIP3    H148050   1.744   5.641   5.893  0.1706  0.2896  0.6643
 7313TIP3    H248051   1.728   5.773   5.965  1.5805  1.1747 -0.5873
 7314TIP3   OH248052   0.751   7.431   6.695 -0.3507 -0.2308  0.0076
 7314TIP3    H148053   0.757   7.372   6.620 -3.0094 -3.6656  2.1496
 7314TIP3    H248054   0.802   7.387   6.764 -2.6891 -0.3920  1.7808
 7315TIP3   OH248055   2.667   1.487   7.485 -0.0392  0.2215  0.4679
 7315TIP3    H148056   2.660   1.416   7.549 -0.2895  0.8846  1.1843
 7315TIP3    H248057   2.586   1.482   7.434  0.5158 -0.8229 -0.3632
 7316TIP3   OH248058   0.923   4.495   1.916  0.3569  0.2807 -0.0446
 7316TIP3    H148059   0.983   4.481   1.842 -2.3640 -0.2050 -2.3292
 7316TIP3    H248060   0.875   4.413   1.924 -0.9795  1.1023  0.7311
 7317TIP3   OH248061   4.903   6.156   5.689  0.5048 -0.8180 -0.0947
 7317TIP3    H148062   4.888   6.080   5.633 -0.0050 -0.5530 -0.3329
 7317TIP3    H248063   4.966   6.126   5.754 -0.6501 -1.8590  0.6101
 7318TIP3   OH248064   0.464   5.784   2.302  0.3676 -0.1006  0.3996
 7318TIP3    H148065   0.522   5.746   2.236 -0.0176  0.9228 -0.5713
 7318TIP3    H248066   0.411   5.711   2.332  1.8080 -0.9521  0.9534
 7319TIP3   OH248067   2.678   6.190   6.699  0.2187  0.3187 -0.5758
 7319TIP3    H148068   2.686   6.226   6.788  0.7793 -0.4000 -0.3277
 7319TIP3    H248069   2.587   6.159   6.694  0.3869 -0.3031  0.0177
 7320TIP3   OH248070   7.927   0.741   0.582 -0.0893 -0.2269  0.0077
 7320TIP3    H148071   7.953   0.690   0.658 -1.0725  0.0855  0.5726
 7320TIP3    H248072   7.960   0.829   0.599  0.0445 -0.2539 -0.1152
 7321TIP3   OH248073   1.099   4.647   2.158  0.3807  0.5247  1.0884
 7321TIP3    H148074   1.120   4.738   2.182  0.7622  0.7670 -0.0989
 7321TIP3    H248075   1.004   4.644   2.158  0.3266  1.3316 -0.2115
 7322TIP3   OH248076   1.340   0.567   1.042 -0.0186  0.3144 -0.0318
 7322TIP3    H148077   1.280   0.602   1.108 -2.0386 -0.6309 -1.2888
 7322TIP3    H248078   1.313   0.608   0.960  1.1132 -0.0933 -0.6395
 7323TIP3   OH248079   7.044   5.382   1.565  0.6022 -0.1219  0.1356
 7323TIP3    H148080   6.979   5.423   1.622 -0.2223  0.0481 -0.9111
 7323TIP3    H248081   7.037   5.288   1.585  0.5732 -0.0287  0.5725
 7324TIP3   OH248082   3.338   3.729   0.578  0.4078 -0.2499  0.0767
 7324TIP3    H148083   3.307   3.732   0.487  1.7863 -0.2293 -0.4256
 7324TIP3    H248084   3.324   3.638   0.605 -2.7119  0.3674  0.8999
 7325TIP3   OH248085   6.553   4.808   6.751  0.2533  0.0722 -0.3135
 7325TIP3    H148086   6.504   4.805   6.669 -0.7465 -0.1276  0.2777
 7325TIP3    H248087   6.586   4.719   6.763 -0.2119 -0.0838 -0.1493
 7326TIP3   OH248088   1.132   4.953   1.004  0.1693 -0.0322  0.5629
 7326TIP3    H148089   1.096   4.875   0.962  1.1157 -0.1723 -0.0084
 7326TIP3    H248090   1.217   4.965   0.963 -0.0164  1.3828  0.5448
 7327TIP3   OH248091   4.584   1.673   6.654  0.3216 -0.0607 -0.0116
 7327TIP3    H148092   4.636   1.593   6.662  2.0234  0.8361 -1.4375
 7327TIP3    H248093   4.560   1.694   6.744  2.9970 -0.2160  0.8301
 7328TIP3   OH248094   3.505   6.289   0.060  0.4077  0.1640 -0.2605
 7328TIP3    H148095   3.578   6.347   0.081  0.5995  0.1299 -0.8074
 7328TIP3    H248096   3.428   6.347   0.058  0.2428  0.0313  1.3192
 7329TIP3   OH248097   2.100   3.809   1.996  0.2882 -0.3234 -0.8094
 7329TIP3    H148098   2.155   3.848   2.064  1.0409 -1.9323 -0.4281
 7329TIP3    H248099   2.025   3.773   2.043 -0.0329  0.0303 -1.0509
 7330TIP3   OH248100   3.775   7.118   0.687  0.3101  0.1616  0.1302
 7330TIP3    H148101   3.828   7.195   0.667 -0.1956  0.7963  1.1703
 7330TIP3    H248102   3.692   7.153   0.719  0.7165 -0.7325  2.4085
 7331TIP3   OH248103   0.219   1.285   6.847 -0.5012 -0.2605 -1.0376
 7331TIP3    H148104   0.137   1.279   6.896 -0.2175  0.2329 -0.4865
 7331TIP3    H248105   0.287   1.290   6.915  0.0630 -1.5819 -1.4723
 7332TIP3   OH248106   1.442   4.057   6.708 -0.1502  0.0531 -0.4029
 7332TIP3    H148107   1.511   4.000   6.672 -0.9473 -0.6397 -0.8702
 7332TIP3    H248108   1.398   4.092   6.630  0.3319  1.3438 -0.1247
 7333TIP3   OH248109   6.849   5.704   1.649  0.0024  0.2656  0.3229
 7333TIP3    H148110   6.933   5.677   1.613 -0.8474 -0.7379 -1.0112
 7333TIP3    H248111   6.865   5.792   1.683  1.2773  0.6336 -1.1174
 7334TIP3   OH248112   7.600   5.598   0.746 -0.4718 -0.8329 -0.3231
 7334TIP3    H148113   7.683   5.644   0.732 -0.6489 -0.1961  0.5960
 7334TIP3    H248114   7.581   5.612   0.839 -1.5371 -1.0916 -0.4947
 7335TIP3   OH248115   2.958   4.054   6.335  0.0448  0.4289  0.6364
 7335TIP3    H148116   2.968   3.959   6.335 -1.8461  0.1009 -2.2823
 7335TIP3    H248117   2.908   4.073   6.415 -1.1266 -1.2915  0.3692
 7336TIP3   OH248118   1.594   0.993   0.776 -0.1883 -0.9532  0.0150
 7336TIP3    H148119   1.509   0.950   0.786  0.3877 -2.5057 -1.3354
 7336TIP3    H248120   1.654   0.936   0.824  0.2817 -0.5387 -0.0833
 7337TIP3   OH248121   6.398   5.844   1.000  0.1728 -0.4120  0.1646
 7337TIP3    H148122   6.348   5.762   1.001 -0.0307 -0.2937 -0.4061
 7337TIP3    H248123   6.427   5.854   1.091 -1.0013 -0.3863  0.5574
 7338TIP3   OH248124   0.740   3.559   1.609 -0.2440  0.0692 -0.6862
 7338TIP3    H148125   0.835   3.552   1.598 -0.0958 -0.3617  0.6382
 7338TIP3    H248126   0.705   3.551   1.521  1.0156  1.5861 -1.3719
 7339TIP3   OH248127   2.016   4.481   6.724  0.6493 -0.2288  0.1780
 7339TIP3    H148128   2.064   4.532   6.658  0.3778 -0.3765 -0.1358
 7339TIP3    H248129   2.066   4.494   6.805  1.2973 -0.4944 -0.1711
 7340TIP3   OH248130   3.191   0.789   0.298  0.0589  0.4169  0.4758
 7340TIP3    H148131   3.218   0.852   0.231  1.0594 -0.2471  0.2268
 7340TIP3    H248132   3.259   0.795   0.365 -1.3018  1.5924  1.8140
 7341TIP3   OH248133   5.051   3.017   2.104  0.2265 -0.0041  0.0236
 7341TIP3    H148134   5.094   2.933   2.121  0.7438  0.1843 -0.3437
 7341TIP3    H248135   5.123   3.080   2.099  0.1007  0.0207 -2.5706
 7342TIP3   OH248136   5.826   6.399   6.968 -0.3563  0.0218 -0.6749
 7342TIP3    H148137   5.915   6.390   6.935  1.0577 -1.1338  2.9552
 7342TIP3    H248138   5.822   6.487   7.005 -0.5057 -0.1338 -0.3152
 7343TIP3   OH248139   4.843   3.594   0.958  0.0427  0.0074 -0.0111
 7343TIP3    H148140   4.931   3.600   0.997  0.3063  1.7374 -0.8197
 7343TIP3    H248141   4.852   3.526   0.891  1.6773  2.2733 -2.2613
 7344TIP3   OH248142   1.060   0.088   7.383 -0.1999  0.0329  0.3617
 7344TIP3    H148143   1.065   0.175   7.422  1.6744  0.2929 -0.3383
 7344TIP3    H248144   0.968   0.063   7.391 -0.9482  2.3690 -0.0761
 7345TIP3   OH248145   1.504   3.483   0.026  0.4234 -0.3181  0.1756
 7345TIP3    H148146   1.461   3.557   0.068 -0.0277 -0.7303  0.4628
 7345TIP3    H248147   1.479   3.408   0.081  0.2711 -0.7867 -0.5288
 7346TIP3   OH248148   4.184   2.649   7.184  0.3951 -0.0479  0.3564
 7346TIP3    H148149   4.127   2.623   7.112  0.8165  0.4603 -0.1702
 7346TIP3    H248150   4.163   2.588   7.255 -0.4550 -0.1705  0.0095
 7347TIP3   OH248151   1.383   2.831   0.093 -0.1334 -1.0035 -0.2214
 7347TIP3    H148152   1.335   2.857   0.014  0.4984 -1.7423 -0.8617
 7347TIP3    H248153   1.400   2.738   0.082  0.7810 -0.9189  0.3502
 7348TIP3   OH248154   1.293   1.759   6.480 -0.2639  0.8601 -0.2760
 7348TIP3    H148155   1.310   1.747   6.386 -0.8820  1.6332 -0.4927
 7348TIP3    H248156   1.265   1.672   6.510 -1.2811  0.8967 -1.0737
 7349TIP3   OH248157   2.345   3.061   1.644 -0.6074 -0.2850 -0.0964
 7349TIP3    H148158   2.271   3.098   1.597  0.1794 -1.3126 -2.2319
 7349TIP3    H248159   2.326   2.968   1.652  1.1184 -0.8819 -2.1417
 7350TIP3   OH248160   6.105   6.588   0.284  0.1078  0.1872  0.3697
 7350TIP3    H148161   6.107   6.494   0.303 -0.1561  0.2964  0.9915
 7350TIP3    H248162   6.133   6.596   0.193 -0.8514 -0.5817 -0.0091
 7351TIP3   OH248163   4.201   5.708   0.850  0.5837 -0.4281 -0.1160
 7351TIP3    H148164   4.181   5.742   0.763  0.7254 -1.9498 -0.7635
 7351TIP3    H248165   4.141   5.756   0.908  0.2674  0.3727 -1.0750
 7352TIP3   OH248166   2.457   3.262   6.530  0.0930 -0.2209 -0.2621
 7352TIP3    H148167   2.501   3.266   6.445  0.7783 -0.6972  0.0669
 7352TIP3    H248168   2.423   3.172   6.535  0.6043 -0.3918  0.2347
 7353TIP3   OH248169   3.010   6.724   0.448  0.1616 -0.1164 -0.4346
 7353TIP3    H148170   2.949   6.756   0.382  1.7098  2.4280 -0.7592
 7353TIP3    H248171   3.063   6.658   0.403  1.9176  2.3337 -2.1937
 7354TIP3   OH248172   4.640   4.979   6.339 -0.0539  0.4893  0.4519
 7354TIP3    H148173   4.718   4.952   6.292  0.7419  2.3114  0.6257
 7354TIP3    H248174   4.567   4.955   6.282  0.6162 -1.1463  0.2432
 7355TIP3   OH248175   4.512   7.838   1.928 -0.3650  0.6509  0.2770
 7355TIP3    H148176   4.490   7.902   1.996 -0.3531 -1.8129  2.7303
 7355TIP3    H248177   4.603   7.816   1.943  0.3444  1.6612 -2.0352
 7356TIP3   OH248178   4.082   5.974   0.510  0.5421 -0.2389  0.0360
 7356TIP3    H148179   4.157   5.990   0.452  1.5187  1.3205  1.6200
 7356TIP3    H248180   4.088   5.882   0.532  0.2207 -0.8547 -2.1543
 7357TIP3   OH248181   7.264   0.524   6.738 -0.1439 -0.0886 -1.0601
 7357TIP3    H148182   7.359   0.534   6.734 -0.0450 -0.6930 -0.3736
 7357TIP3    H248183   7.237   0.586   6.805 -0.1449 -0.4771 -0.7007
 7358TIP3   OH248184   2.532   4.390   7.439 -0.3473  0.2471 -0.0568
 7358TIP3    H148185   2.537   4.458   7.507  2.9367 -1.2341  1.3828
 7358TIP3    H248186   2.586   4.424   7.368  2.6075 -1.2696  1.2758
 7359TIP3   OH248187   5.755   2.287   0.525 -0.3844 -0.7938 -0.1154
 7359TIP3    H148188   5.662   2.284   0.547 -0.4979 -0.9762 -0.6097
 7359TIP3    H248189   5.762   2.240   0.442 -0.2487  1.5522 -1.5154
 7360TIP3   OH248190   7.608   6.239   0.657 -0.1308 -0.0243  0.0190
 7360TIP3    H148191   7.595   6.150   0.690 -0.1883 -1.0424 -2.5103
 7360TIP3    H248192   7.520   6.277   0.656 -0.3751 -0.5867 -0.5267
 7361TIP3   OH248193   6.726   4.889   0.827  0.3734 -0.1067  0.2924
 7361TIP3    H148194   6.708   4.977   0.795 -0.8130 -0.2013  0.6230
 7361TIP3    H248195   6.724   4.898   0.923  0.5148 -0.4413  0.3288
 7362TIP3   OH248196   3.786   4.234   6.686 -0.0118  0.0490 -0.1543
 7362TIP3    H148197   3.869   4.187   6.686  0.1251  0.2857  0.4844
 7362TIP3    H248198   3.732   4.187   6.750 -0.9117 -1.0374 -1.6552
 7363TIP3   OH248199   3.644   5.807   5.876  0.9835  0.3217 -0.5355
 7363TIP3    H148200   3.662   5.713   5.888  1.1047  0.5036  0.8464
 7363TIP3    H248201   3.681   5.827   5.790  0.0615 -1.1048 -1.3109
 7364TIP3   OH248202   7.541   4.392   1.991 -0.8269  0.2699 -0.1786
 7364TIP3    H148203   7.505   4.458   2.051  0.1963  1.1354 -0.4843
 7364TIP3    H248204   7.598   4.442   1.932 -1.7084 -0.5647 -1.8080
 7365TIP3   OH248205   2.718   6.378   0.397  0.0083 -0.3532  0.4630
 7365TIP3    H148206   2.662   6.325   0.453 -0.0027 -1.4402 -0.5481
 7365TIP3    H248207   2.672   6.462   0.390 -1.0358 -0.9231  0.3719
 7366TIP3   OH248208   5.917   5.348   0.046  0.4260  0.0287  0.4396
 7366TIP3    H148209   5.947   5.258   0.032  0.7054  0.2366 -0.2964
 7366TIP3    H248210   5.993   5.402   0.028  0.3613  0.4032  1.2352
 7367TIP3   OH248211   0.048   2.068   1.287 -0.0980  0.0679 -0.6244
 7367TIP3    H148212  -0.019   2.012   1.246  0.1680  0.3152 -1.4115
 7367TIP3    H248213   0.082   2.015   1.359 -0.8558 -0.2215 -0.4628
 7368TIP3   OH248214   3.344   2.282   1.167 -0.3477  0.1366  0.1570
 7368TIP3    H148215   3.424   2.247   1.126 -1.4794 -2.0455 -0.3650
 7368TIP3    H248216   3.361   2.275   1.261  0.6518  1.1608  0.0662
 7369TIP3   OH248217   3.622   5.769   6.336 -0.0360 -0.4245  0.2583
 7369TIP3    H148218   3.651   5.828   6.267 -0.1742  1.5150  1.7837
 7369TIP3    H248219   3.641   5.815   6.418 -0.0039 -2.5743  1.5442
 7370TIP3   OH248220   3.184   6.250   7.790 -0.2494  0.0172  0.4511
 7370TIP3    H148221   3.112   6.189   7.797 -0.4576  0.1936 -0.0980
 7370TIP3    H248222   3.171   6.294   7.706  0.2696  0.3357  0.5280
 7371TIP3   OH248223   2.835   7.088   0.225 -0.3334  0.3009 -0.1639
 7371TIP3    H148224   2.814   6.999   0.252  0.3579  0.6535  1.6767
 7371TIP3    H248225   2.838   7.139   0.306  0.5203  1.7410 -1.0353
 7372TIP3   OH248226   6.695   2.391   1.150 -0.0773  0.0651  0.3620
 7372TIP3    H148227   6.612   2.413   1.107  0.8632  0.3905 -1.3896
 7372TIP3    H248228   6.745   2.473   1.148  0.8646 -0.5099  0.0050
 7373TIP3   OH248229   1.527   5.993   0.411 -0.1550  0.4883 -0.2452
 7373TIP3    H148230   1.593   6.034   0.354  0.0467  0.0502 -0.3312
 7373TIP3    H248231   1.578   5.955   0.483 -0.3660  0.6192 -0.0277
 7374TIP3   OH248232   0.738   1.584   1.084  0.1747  0.4515 -0.1330
 7374TIP3    H148233   0.833   1.595   1.078  0.4033 -0.9622  0.4938
 7374TIP3    H248234   0.720   1.577   1.178 -0.0855 -2.5432 -0.3090
 7375TIP3   OH248235   3.082   7.694   0.626  0.2468 -0.1357 -0.1720
 7375TIP3    H148236   3.090   7.599   0.634 -0.2666 -0.3552 -1.8455
 7375TIP3    H248237   2.993   7.707   0.591 -0.2129  1.0555  1.3510
 7376TIP3   OH248238   1.176   4.495   1.143 -0.3974  0.4827  0.4059
 7376TIP3    H148239   1.253   4.463   1.190  0.4193 -0.2685 -1.3826
 7376TIP3    H248240   1.138   4.561   1.202 -0.3543 -1.4940  2.8236
 7377TIP3   OH248241   5.711   3.288   7.375  0.2844 -0.4409  0.3247
 7377TIP3    H148242   5.717   3.362   7.313 -0.0801 -0.3193  0.4315
 7377TIP3    H248243   5.627   3.301   7.419 -0.4430 -1.6885 -0.6282
 7378TIP3   OH248244   1.527   5.018   0.187 -0.8914  0.2749 -0.2930
 7378TIP3    H148245   1.540   4.970   0.105 -1.6734  0.7343 -0.7031
 7378TIP3    H248246   1.434   5.041   0.186 -1.0414 -0.1958  0.9939
 7379TIP3   OH248247   1.556   7.156   0.432  0.1050 -0.1718  0.3676
 7379TIP3    H148248   1.497   7.226   0.404  0.1568 -0.0099  0.6517
 7379TIP3    H248249   1.641   7.199   0.444  0.3185 -0.4339 -0.1883
 7380TIP3   OH248250   1.203   6.808   6.853 -0.6755  0.0659  0.5809
 7380TIP3    H148251   1.169   6.813   6.763  0.3405 -2.1867 -0.0006
 7380TIP3    H248252   1.125   6.821   6.908 -1.4198  0.9227 -0.6254
 7381TIP3   OH248253   6.483   3.138   0.729  0.1683  0.5727 -0.3002
 7381TIP3    H148254   6.448   3.197   0.661 -0.5358 -0.0654 -0.5026
 7381TIP3    H248255   6.423   3.064   0.729  0.2129  0.5243  0.9732
 7382TIP3   OH248256   7.981   6.097   7.616  0.4338  0.2149  0.0720
 7382TIP3    H148257   7.984   6.089   7.711 -0.2948  0.0652  0.0883
 7382TIP3    H248258   7.888   6.088   7.594  0.8063 -2.0784 -0.8448
 7383TIP3   OH248259   7.521   0.022   5.632  0.5214 -0.2421  0.1032
 7383TIP3    H148260   7.563  -0.063   5.645 -1.5873 -1.6942 -1.8268
 7383TIP3    H248261   7.511   0.058   5.720  4.6111 -0.2684  0.7524
 7384TIP3   OH248262   0.221   5.857   0.315  0.4764 -0.2751  0.0002
 7384TIP3    H148263   0.304   5.884   0.354  0.4954 -0.5220  0.1366
 7384TIP3    H248264   0.239   5.851   0.222  0.2241  1.0771 -0.1482
 7385TIP3   OH248265   3.963   1.869   6.885 -0.0330 -0.1460  0.1788
 7385TIP3    H148266   3.960   1.914   6.800  0.7415 -0.1416  0.1441
 7385TIP3    H248267   4.042   1.904   6.927  0.1930 -0.9622  0.4447
 7386TIP3   OH248268   6.237   6.331   1.769  0.3761  0.2669  0.3218
 7386TIP3    H148269   6.305   6.265   1.784  0.0421 -0.5328 -1.4659
 7386TIP3    H248270   6.155   6.283   1.773  0.1184  0.5675 -0.8132
 7387TIP3   OH248271   2.569   4.658   7.576  0.4595 -0.2146 -0.0158
 7387TIP3    H148272   2.545   4.701   7.658  1.2943 -3.4796  2.0842
 7387TIP3    H248273   2.630   4.719   7.535 -0.2898  1.6899  1.5205
 7388TIP3   OH248274   5.348   6.272   1.441  0.1686 -0.0235 -0.2342
 7388TIP3    H148275   5.382   6.361   1.438 -0.0560  0.0517 -0.5778
 7388TIP3    H248276   5.371   6.234   1.357  1.4401 -0.7359  0.4081
 7389TIP3   OH248277   3.608   7.644   6.596 -0.1606  0.7376  0.2825
 7389TIP3    H148278   3.610   7.736   6.623  0.6784  0.5137  0.9954
 7389TIP3    H248279   3.690   7.607   6.627 -0.4396 -0.2373 -0.0909
 7390TIP3   OH248280   0.071   7.824   0.726  0.1350 -0.9301 -0.2363
 7390TIP3    H148281   0.051   7.838   0.634 -2.2692  1.0541  0.4785
 7390TIP3    H248282   0.134   7.893   0.748 -0.0763 -0.7617 -0.1599
 7391TIP3   OH248283   4.850   2.718   6.191 -0.6422  0.3939  0.4584
 7391TIP3    H148284   4.772   2.681   6.232 -0.6058 -1.0105 -0.6413
 7391TIP3    H248285   4.870   2.658   6.119  0.7101  1.4267 -0.0790
 7392TIP3   OH248286   7.362   6.302   2.103 -0.2131 -0.2944 -0.7545
 7392TIP3    H148287   7.416   6.229   2.070 -1.1402 -1.3348 -0.0238
 7392TIP3    H248288   7.280   6.261   2.129  0.1055  0.6111  1.9629
 7393TIP3   OH248289   1.467   3.401   6.260  0.3306  0.0013 -0.1816
 7393TIP3    H148290   1.524   3.325   6.250  1.3259  0.9024 -1.7321
 7393TIP3    H248291   1.404   3.394   6.188 -0.2580  0.0659  0.3223
 7394TIP3   OH248292   0.415   7.384   6.721 -0.6288 -0.1628 -0.6321
 7394TIP3    H148293   0.504   7.383   6.686  0.1538 -2.2736  1.2381
 7394TIP3    H248294   0.408   7.467   6.769  0.7977 -0.5629  0.2994
 7395TIP3   OH248295   7.304   1.970   6.826 -0.2282  0.0404  0.3563
 7395TIP3    H148296   7.273   1.944   6.739  0.4401  2.1307 -0.5624
 7395TIP3    H248297   7.374   2.032   6.809  0.1221  0.2639  2.4068
 7396TIP3   OH248298   3.069   2.919   7.465 -0.6001  0.2971  0.3863
 7396TIP3    H148299   3.120   2.839   7.448 -0.0838  0.8526 -0.7895
 7396TIP3    H248300   3.070   2.928   7.560  0.9323 -0.0779  0.4343
 7397TIP3   OH248301   4.361   5.521   0.040 -0.0338 -0.0266 -0.3284
 7397TIP3    H148302   4.411   5.456   0.090 -0.3700  2.2940  3.3837
 7397TIP3    H248303   4.426   5.566  -0.013  1.5524  1.2724  2.5323
 7398TIP3   OH248304   2.831   2.436   1.547  0.0673  0.4501  0.0819
 7398TIP3    H148305   2.875   2.520   1.561  0.9152 -0.2728  2.0477
 7398TIP3    H248306   2.765   2.432   1.615  1.4186 -1.3380  1.3765
 7399TIP3   OH248307   5.842   5.498   7.719 -0.1106  0.2675 -0.3609
 7399TIP3    H148308   5.853   5.418   7.772 -2.1535  0.4455  0.4213
 7399TIP3    H248309   5.826   5.466   7.630 -0.3551 -0.1764 -0.1596
 7400TIP3   OH248310   3.837   7.157   1.003  0.1990  0.2032 -0.0742
 7400TIP3    H148311   3.904   7.090   1.016  0.6337  0.7327  0.5216
 7400TIP3    H248312   3.887   7.239   1.001 -0.5301  0.7367  1.6706
 7401TIP3   OH248313   2.074   1.043   7.755 -0.3678 -0.2929  0.6935
 7401TIP3    H148314   2.090   1.083   7.670  0.9087  1.1199  1.5379
 7401TIP3    H248315   2.160   1.014   7.785 -0.7956 -0.7639  1.4934
 7402TIP3   OH248316   4.515   1.344   5.828 -0.1973  0.3371  0.1898
 7402TIP3    H148317   4.456   1.363   5.901  1.0005 -0.8802  1.5309
 7402TIP3    H248318   4.459   1.348   5.751 -1.4181  2.1533  1.0761
 7403TIP3   OH248319   7.408   0.666   7.755  0.3883  0.7433 -0.4882
 7403TIP3    H148320   7.484   0.714   7.786  0.4199  0.4552 -0.1036
 7403TIP3    H248321   7.439   0.576   7.744 -0.2439  0.2868  1.1217
 7404TIP3   OH248322   6.454   1.372   6.635  0.0185 -0.4768  0.1636
 7404TIP3    H148323   6.415   1.350   6.550  0.0081 -0.6628  0.2141
 7404TIP3    H248324   6.510   1.447   6.618  0.6011 -0.9740 -0.1581
 7405TIP3   OH248325   2.826   3.128   0.363 -0.5097 -0.1788 -0.1451
 7405TIP3    H148326   2.885   3.075   0.309 -1.1959 -0.6728 -0.4300
 7405TIP3    H248327   2.760   3.066   0.394 -0.1541  0.1065  1.2431
 7406TIP3   OH248328   5.801   4.478   6.599  0.3376  0.7733 -0.9326
 7406TIP3    H148329   5.889   4.486   6.561  0.6275 -0.4855 -0.5705
 7406TIP3    H248330   5.745   4.456   6.525  0.3564  1.4142 -1.1385
 7407TIP3   OH248331   0.856   4.620   6.601  0.0447  0.1560 -0.1646
 7407TIP3    H148332   0.884   4.561   6.671 -0.7507  0.2591  0.2664
 7407TIP3    H248333   0.767   4.591   6.580 -0.5503  1.4536  0.3882
 7408TIP3   OH248334   3.269   4.589   6.466 -0.0717  0.3421  0.0225
 7408TIP3    H148335   3.317   4.629   6.394 -1.5018 -0.3550 -1.3759
 7408TIP3    H248336   3.183   4.631   6.463 -0.6864 -0.8776  0.2686
 7409TIP3   OH248337   4.732   5.576   0.004  0.0146 -0.3443  0.1117
 7409TIP3    H148338   4.689   5.614  -0.073 -0.8330  0.2196  0.8400
 7409TIP3    H248339   4.733   5.647   0.069  1.1749 -0.6555  0.4523
 7410TIP3   OH248340   0.157   3.421   7.229 -0.5168  0.5463 -0.3768
 7410TIP3    H148341   0.106   3.491   7.186  1.5073  1.8475 -0.8156
 7410TIP3    H248342   0.248   3.441   7.206  0.2486 -1.4086  0.7594
 7411TIP3   OH248343   2.803   5.400   0.305 -0.5777  0.2580 -0.3722
 7411TIP3    H148344   2.867   5.348   0.257 -1.3023  0.8605 -2.0731
 7411TIP3    H248345   2.742   5.337   0.341  1.0105 -0.3499  1.4561
 7412TIP3   OH248346   4.135   6.385   0.891 -0.2664 -0.6529  0.3234
 7412TIP3    H148347   4.209   6.441   0.916  0.6300 -1.5026 -0.3789
 7412TIP3    H248348   4.164   6.339   0.813 -1.4603 -1.1892  0.1673
 7413TIP3   OH248349   1.504   0.952   1.116 -0.0174 -0.1141 -0.4321
 7413TIP3    H148350   1.495   1.047   1.116  0.7870 -0.0054 -2.1088
 7413TIP3    H248351   1.449   0.923   1.189 -1.0839  1.5553 -0.5204
 7414TIP3   OH248352   4.646   2.594   6.318 -0.1925 -0.0926 -0.2301
 7414TIP3    H148353   4.602   2.522   6.364  1.2286 -1.6715 -1.1835
 7414TIP3    H248354   4.609   2.673   6.356  0.4582 -1.2478  3.2267
 7415TIP3   OH248355   0.047   6.030   6.072 -0.3257  0.0849  0.3031
 7415TIP3    H148356  -0.034   6.056   6.028  0.1014 -1.7338 -1.6922
 7415TIP3    H248357   0.116   6.077   6.025  0.0655 -1.2540 -0.5105
 7416TIP3   OH248358   7.353   5.731   2.115 -0.1424 -0.6965 -0.1706
 7416TIP3    H148359   7.319   5.715   2.203 -1.3894  2.4527  0.0496
 7416TIP3    H248360   7.448   5.737   2.126 -0.2291 -0.9848  0.8244
 7417TIP3   OH248361   5.998   3.136   7.277 -0.2028 -0.5418 -0.4436
 7417TIP3    H148362   6.015   3.059   7.331 -0.9865 -0.4565 -0.0629
 7417TIP3    H248363   5.909   3.122   7.243 -1.0398  0.9817  1.0049
 7418TIP3   OH248364   3.317   3.947   7.836 -0.5114 -0.3245  0.1733
 7418TIP3    H148365   3.409   3.933   7.815 -0.1057 -1.0431  2.1620
 7418TIP3    H248366   3.273   3.867   7.809 -0.0524 -1.1166  1.6644
 7419TIP3   OH248367   1.807   5.201   1.204 -0.0260  0.2906 -0.6551
 7419TIP3    H148368   1.772   5.134   1.263 -1.1376  0.3377 -1.2267
 7419TIP3    H248369   1.902   5.188   1.205 -0.1358 -0.5077  0.1666
 7420TIP3   OH248370   6.143   4.821   7.645  0.0586 -0.0358  0.0331
 7420TIP3    H148371   6.186   4.737   7.629  1.1990  0.1190  1.8993
 7420TIP3    H248372   6.152   4.869   7.563  1.3154 -0.9504 -0.3989
 7421TIP3   OH248373   3.402   6.926   6.792 -0.6477  0.0983 -0.4385
 7421TIP3    H148374   3.476   6.951   6.737 -0.3853  1.0960  0.3422
 7421TIP3    H248375   3.427   6.955   6.880 -1.2140 -1.1418  0.1505
 7422TIP3   OH248376   7.602   0.040   6.684  0.8076  0.3647 -0.4781
 7422TIP3    H148377   7.576   0.103   6.618  1.1902 -0.0556 -1.0403
 7422TIP3    H248378   7.519   0.008   6.721  0.5989  0.7336 -0.6215
 7423TIP3   OH248379   5.484   2.201   1.383 -0.4525  0.3388  0.4475
 7423TIP3    H148380   5.517   2.289   1.399 -0.1811  0.0794  1.3780
 7423TIP3    H248381   5.546   2.163   1.320 -1.6684  1.4573 -1.5115
 7424TIP3   OH248382   3.976   5.616   0.289  0.1899 -0.3773  0.1973
 7424TIP3    H148383   4.046   5.576   0.341  1.1203  1.9020  0.7957
 7424TIP3    H248384   4.016   5.630   0.203  0.2596  0.3423  0.3478
 7425TIP3   OH248385   1.699   6.104   0.227 -0.3029 -0.0583  0.0742
 7425TIP3    H148386   1.734   6.054   0.153 -1.4381  1.2259 -1.3964
 7425TIP3    H248387   1.712   6.195   0.202 -2.0298  0.4165  0.7697
 7426TIP3   OH248388   4.873   2.510   1.444  0.3194 -0.5886 -0.1634
 7426TIP3    H148389   4.892   2.559   1.524 -1.3462 -2.5038  1.5457
 7426TIP3    H248390   4.940   2.441   1.441  0.8232 -0.0852 -0.8687
 7427TIP3   OH248391   1.691   1.214   0.070  0.4295  0.3188 -0.0586
 7427TIP3    H148392   1.751   1.140   0.057  0.1893  0.0855  0.1298
 7427TIP3    H248393   1.701   1.268  -0.008  1.0998  0.4369  0.1039
 7428TIP3   OH248394   6.118   3.849   5.927  0.2561  0.5352 -0.4039
 7428TIP3    H148395   6.039   3.843   5.980  0.5636  1.1799  0.1363
 7428TIP3    H248396   6.106   3.928   5.875  0.2997  0.3276 -0.7365
 7429TIP3   OH248397   6.189   3.652   0.317 -0.5892  0.0743  0.3547
 7429TIP3    H148398   6.177   3.560   0.293  0.2536 -0.5259  2.0685
 7429TIP3    H248399   6.161   3.701   0.240 -0.4169 -1.6362 -0.8433
 7430TIP3   OH248400   3.765   0.974   5.505  0.2488  0.5053  0.5545
 7430TIP3    H148401   3.705   0.985   5.578  0.2563 -0.1058  0.6558
 7430TIP3    H248402   3.839   0.926   5.542  0.2214  0.1331  0.1317
 7431TIP3   OH248403   2.035   0.806   0.204 -0.0514 -0.1945 -0.9076
 7431TIP3    H148404   2.098   0.797   0.275  0.2254  2.2154 -0.7778
 7431TIP3    H248405   1.998   0.718   0.194 -0.1489 -0.6332  2.2483
 7432TIP3   OH248406   3.168   0.291   7.447 -0.6148  0.4967  0.0749
 7432TIP3    H148407   3.214   0.237   7.383 -1.4748 -0.4550  0.2330
 7432TIP3    H248408   3.117   0.352   7.394  0.2449  1.0868 -0.1051
 7433TIP3   OH248409   4.678   5.679   5.601 -0.8165 -0.0888 -0.1227
 7433TIP3    H148410   4.596   5.683   5.651 -0.4564 -0.6011  0.5235
 7433TIP3    H248411   4.662   5.614   5.533 -0.4588 -1.3350  0.9465
 7434TIP3   OH248412   5.797   3.327   6.529 -0.5092 -0.2552 -0.1757
 7434TIP3    H148413   5.803   3.411   6.484  0.1931 -0.8148 -1.1836
 7434TIP3    H248414   5.717   3.333   6.581 -0.8224  0.7876 -0.7440
 7435TIP3   OH248415   4.476   3.027   7.172 -0.5716 -0.0812  0.3847
 7435TIP3    H148416   4.395   3.070   7.144 -0.3330 -0.9119 -1.7799
 7435TIP3    H248417   4.448   2.939   7.199 -0.4500 -0.2697 -0.0868
 7436TIP3   OH248418   5.854   3.687   0.923 -0.3245 -0.3717  0.2862
 7436TIP3    H148419   5.915   3.716   0.855  0.7556  1.3745  1.9085
 7436TIP3    H248420   5.909   3.637   0.983 -1.2650 -1.8733 -0.0505
 7437TIP3   OH248421   4.386   7.833   1.366 -0.3263 -0.2790  0.6598
 7437TIP3    H148422   4.381   7.901   1.299 -3.1283 -1.2188 -0.2120
 7437TIP3    H248423   4.397   7.882   1.448  0.5694  1.0284 -0.1954
 7438TIP3   OH248424   4.549   7.536   0.423  0.3131 -0.1007 -0.1290
 7438TIP3    H148425   4.529   7.447   0.393 -0.8113 -0.6948  2.1833
 7438TIP3    H248426   4.633   7.529   0.468  0.7231  0.2443 -0.8223
 7439TIP3   OH248427   5.140   4.165   2.547 -0.2565  0.3141  0.3596
 7439TIP3    H148428   5.068   4.119   2.503 -0.7391  1.6504 -0.2766
 7439TIP3    H248429   5.218   4.118   2.517 -0.6085  0.8042 -1.5030
 7440TIP3   OH248430   2.773   4.051   0.993  0.5759  0.4439 -0.1683
 7440TIP3    H148431   2.768   4.059   0.898 -0.1849 -0.2800 -0.1969
 7440TIP3    H248432   2.768   4.141   1.025  2.1775  0.7981 -0.8548
 7441TIP3   OH248433   2.322   0.017   6.819 -0.0990  0.0638  0.6288
 7441TIP3    H148434   2.295   0.096   6.772  1.8950  1.4726  1.7001
 7441TIP3    H248435   2.248  -0.043   6.809 -1.3809  1.7612 -0.8629
 7442TIP3   OH248436   2.545   6.828   7.613  0.4194  0.2920 -0.7379
 7442TIP3    H148437   2.471   6.833   7.552  0.9273 -0.5130 -1.4524
 7442TIP3    H248438   2.583   6.742   7.596  0.6762  0.1280  0.6175
 7443TIP3   OH248439   0.641   2.713   0.681  0.1448  1.0997  0.4598
 7443TIP3    H148440   0.679   2.694   0.595 -0.4663 -0.1883  0.4587
 7443TIP3    H248441   0.547   2.698   0.670  0.1198  0.3732  1.4806
 7444TIP3   OH248442   0.936   3.667   5.916  0.2796 -0.0180  0.2482
 7444TIP3    H148443   0.883   3.593   5.945 -1.1849  0.8457 -0.1021
 7444TIP3    H248444   0.969   3.706   5.997  0.3558 -0.5475  0.4775
 7445TIP3   OH248445   7.142   1.217   1.492 -0.9583 -0.2083  0.3266
 7445TIP3    H148446   7.232   1.193   1.515 -1.1000  0.8933  2.1209
 7445TIP3    H248447   7.114   1.147   1.433  0.4330 -1.5891  1.2284
 7446TIP3   OH248448   4.833   3.052   0.708 -0.5915 -0.1066 -0.4153
 7446TIP3    H148449   4.832   3.146   0.687  2.3834 -0.1447 -1.2540
 7446TIP3    H248450   4.834   3.009   0.623  2.5653 -0.6369 -0.2262
 7447TIP3   OH248451   5.835   5.978   1.303  0.4302 -0.0384  0.2101
 7447TIP3    H148452   5.917   5.940   1.335  1.5774  0.2111 -2.1703
 7447TIP3    H248453   5.817   6.049   1.364  1.4073 -0.7323  1.3780
 7448TIP3   OH248454   4.590   5.328   2.377 -0.1299  0.0583  0.3352
 7448TIP3    H148455   4.503   5.301   2.404 -0.6106  3.2621  2.6667
 7448TIP3    H248456   4.576   5.380   2.298 -0.2440 -0.1308  0.2336
 7449TIP3   OH248457   1.413   6.277   1.523 -0.7820  0.3606 -0.9074
 7449TIP3    H148458   1.321   6.298   1.543 -0.1448  1.7860  0.8442
 7449TIP3    H248459   1.415   6.265   1.428 -2.8248  0.0055 -0.9517
 7450TIP3   OH248460   0.008   5.145   2.247  0.1052  0.4541  0.3303
 7450TIP3    H148461   0.039   5.234   2.265 -0.3778  0.9881 -1.2938
 7450TIP3    H248462   0.044   5.124   2.162 -1.3347 -0.1505 -0.1631
 7451TIP3   OH248463   7.523   4.796   0.708 -0.4366  0.3221 -0.5047
 7451TIP3    H148464   7.597   4.749   0.746 -1.3115  0.3157  1.2984
 7451TIP3    H248465   7.453   4.731   0.701 -1.8494  1.3455  2.5484
 7452TIP3   OH248466   1.932   3.726   1.416  0.2536 -0.3410 -0.2951
 7452TIP3    H148467   1.873   3.720   1.341 -0.4015  1.5122  0.0117
 7452TIP3    H248468   2.020   3.718   1.379 -0.1103 -0.7779 -1.0707
 7453TIP3   OH248469   4.052   6.230   7.363  0.5385 -0.1034 -0.0475
 7453TIP3    H148470   4.053   6.195   7.452 -0.6090  0.5080  0.2347
 7453TIP3    H248471   3.968   6.276   7.357  1.3351  1.2940 -0.8928
 7454TIP3   OH248472   1.685   6.375   0.124  0.3456  0.1174 -0.1145
 7454TIP3    H148473   1.671   6.464   0.156 -1.0853  0.5488 -1.8073
 7454TIP3    H248474   1.602   6.349   0.085  0.8513 -1.8347 -0.0440
 7455TIP3   OH248475   5.080   7.630   0.395 -0.1259  0.2144  0.1390
 7455TIP3    H148476   5.068   7.725   0.393  2.3308  0.5924  0.4797
 7455TIP3    H248477   5.065   7.606   0.486  1.5375  0.6736  0.5649
 7456TIP3   OH248478   1.655   2.978   5.791 -1.1599  0.0162 -0.0639
 7456TIP3    H148479   1.740   2.995   5.831 -0.4612 -0.7518 -1.1570
 7456TIP3    H248480   1.606   2.929   5.856 -0.2097 -0.8345  0.0295
 7457TIP3   OH248481   7.282   2.467   7.261 -0.0431 -0.0724 -0.2136
 7457TIP3    H148482   7.304   2.501   7.348 -0.4739 -0.4384  0.0450
 7457TIP3    H248483   7.194   2.432   7.271  0.5522 -1.6922 -0.3480
 7458TIP3   OH248484   6.705   7.901   7.511  0.6052  0.1435  0.4848
 7458TIP3    H148485   6.697   7.989   7.474  0.2752 -0.7293 -1.6785
 7458TIP3    H248486   6.750   7.914   7.594  2.0042  2.2019 -0.5043
 7459TIP3   OH248487   2.544   7.426   7.007 -0.0713 -0.2910 -0.4651
 7459TIP3    H148488   2.635   7.419   7.035  0.0177 -0.1273 -0.7052
 7459TIP3    H248489   2.501   7.476   7.076 -0.2064 -1.2150  0.1397
 7460TIP3   OH248490   7.182   7.086   0.935  0.4322  0.6088 -0.3221
 7460TIP3    H148491   7.103   7.066   0.886  0.2842 -0.5892  0.3638
 7460TIP3    H248492   7.154   7.149   1.002  0.1536  0.5105 -0.3469
 7461TIP3   OH248493   0.317   2.619   0.907 -0.3208 -0.3041  0.3797
 7461TIP3    H148494   0.293   2.635   0.999 -0.9811 -1.7608  0.5030
 7461TIP3    H248495   0.296   2.526   0.894 -0.1960 -0.1229 -1.2361
 7462TIP3   OH248496   7.191   6.575   0.019 -0.0185  0.7405  0.1571
 7462TIP3    H148497   7.264   6.521  -0.011  1.5958  2.6375  0.4758
 7462TIP3    H248498   7.161   6.621  -0.060 -0.9387 -0.0650  0.0175
 7463TIP3   OH248499   3.355   0.815   6.313 -0.0023 -0.2072  0.6017
 7463TIP3    H148500   3.439   0.781   6.344  0.1645  0.1994  0.5902
 7463TIP3    H248501   3.299   0.737   6.308  0.7066 -0.6726 -0.5321
 7464TIP3   OH248502   2.847   0.481   2.172  0.0372 -0.3096  0.2784
 7464TIP3    H148503   2.857   0.437   2.256  0.8182  0.7262  0.7521
 7464TIP3    H248504   2.935   0.508   2.148 -0.4970  2.0052  0.6148
 7465TIP3   OH248505   7.312   2.845   1.319  0.5864 -0.4956 -0.1187
 7465TIP3    H148506   7.254   2.861   1.244 -1.4975 -0.5552  1.3824
 7465TIP3    H248507   7.294   2.755   1.345  2.5097 -1.0257 -0.4965
 7466TIP3   OH248508   1.382   7.763   0.627  0.4583  0.3348  0.0345
 7466TIP3    H148509   1.417   7.751   0.539 -0.0649  0.3484 -0.1790
 7466TIP3    H248510   1.295   7.723   0.624  0.3224  0.5927  0.4601
 7467TIP3   OH248511   5.882   1.311   0.411  0.1542  0.5283 -0.6407
 7467TIP3    H148512   5.857   1.316   0.319  1.2093 -1.3587 -1.0837
 7467TIP3    H248513   5.960   1.255   0.412 -0.3428 -0.2384  1.4885
 7468TIP3   OH248514   5.769   0.283   6.555  0.3887  0.6653 -0.3427
 7468TIP3    H148515   5.822   0.315   6.628  1.5835  1.1125 -1.3601
 7468TIP3    H248516   5.698   0.346   6.547 -0.0471  0.3365  0.7308
 7469TIP3   OH248517   7.491   5.792   0.019 -0.5498  0.0498 -0.1499
 7469TIP3    H148518   7.511   5.885   0.032 -0.1573  0.2154 -1.7219
 7469TIP3    H248519   7.411   5.777   0.068 -0.9440  1.3763 -0.3564
 7470TIP3   OH248520   5.447   2.598   0.394  0.1988  0.2194 -0.0240
 7470TIP3    H148521   5.481   2.563   0.477 -0.9851  0.7807  0.7363
 7470TIP3    H248522   5.448   2.693   0.405 -0.0029  0.3000 -0.6364
 7471TIP3   OH248523   4.742   7.395   0.051  0.2954  0.2531 -0.3730
 7471TIP3    H148524   4.825   7.389   0.100  0.6495  1.2177 -0.8384
 7471TIP3    H248525   4.767   7.423  -0.036 -0.5784  1.2261 -0.3341
 7472TIP3   OH248526   1.127   6.068   7.613  0.4590 -0.8462  0.3464
 7472TIP3    H148527   1.095   6.033   7.697  0.8320 -0.4066  0.6781
 7472TIP3    H248528   1.048   6.087   7.563  0.0127  2.3462  1.9992
 7473TIP3   OH248529   7.406   1.580   6.365 -0.4022  0.1416  0.2429
 7473TIP3    H148530   7.467   1.511   6.389 -2.2535 -1.4918  0.4541
 7473TIP3    H248531   7.425   1.651   6.426 -0.7195 -1.4920  2.3375
 7474TIP3   OH248532   1.045   2.488   1.185  0.6714 -0.6691 -0.2859
 7474TIP3    H148533   1.131   2.447   1.194  1.3667  0.8914  0.7698
 7474TIP3    H248534   1.038   2.545   1.262 -0.3876  0.8641 -1.4614
 7475TIP3   OH248535   2.951   5.575   1.524  0.4024  0.0027 -0.7116
 7475TIP3    H148536   2.936   5.666   1.502  4.7183  0.7828 -1.3691
 7475TIP3    H248537   2.934   5.527   1.443 -0.3715  0.4362 -0.8063
 7476TIP3   OH248538   3.638   5.259   7.880 -0.0083 -0.4364  0.2558
 7476TIP3    H148539   3.659   5.168   7.856  1.5036  0.3653 -1.7603
 7476TIP3    H248540   3.713   5.287   7.932  1.0843  0.5304 -1.7153
 7477TIP3   OH248541   7.721   6.643   0.202 -0.1755  0.0342 -0.2396
 7477TIP3    H148542   7.683   6.673   0.285 -2.0998 -1.2650 -0.6009
 7477TIP3    H248543   7.797   6.591   0.228 -0.4534  0.0779  0.6893
 7478TIP3   OH248544   8.076   7.251   0.165 -0.2614 -0.0956  0.0042
 7478TIP3    H148545   8.080   7.166   0.208 -1.0742 -0.1669 -0.0579
 7478TIP3    H248546   8.023   7.306   0.222 -0.3211  0.1680 -0.2995
 7479TIP3   OH248547   0.644   6.290   0.496  0.0946  0.0081  0.5203
 7479TIP3    H148548   0.558   6.330   0.485  1.0616  2.5653  1.5106
 7479TIP3    H248549   0.641   6.250   0.583 -0.0771  0.1538  0.5818
 7480TIP3   OH248550   4.319   0.837   6.154  0.3355 -0.0887  0.2177
 7480TIP3    H148551   4.318   0.910   6.092  2.3073  1.6113  1.9814
 7480TIP3    H248552   4.404   0.845   6.198  1.1749 -4.2258 -0.2821
 7481TIP3   OH248553   3.648   4.800   1.952 -0.1275 -0.3750  0.2304
 7481TIP3    H148554   3.620   4.759   2.034  1.0319  0.1124  0.8850
 7481TIP3    H248555   3.608   4.887   1.954 -0.7164 -0.6251 -0.0980
 7482TIP3   OH248556   6.681   7.011   6.953 -0.5060  0.1265 -0.0994
 7482TIP3    H148557   6.622   7.069   6.905 -2.4758 -1.0446  0.8149
 7482TIP3    H248558   6.651   6.923   6.931  2.4024 -0.6577 -1.4265
 7483TIP3   OH248559   5.484   6.902   6.583 -0.0866 -0.1898  0.3865
 7483TIP3    H148560   5.494   6.807   6.582 -1.2327 -0.3160 -0.0789
 7483TIP3    H248561   5.547   6.932   6.649  0.1277 -1.2786  0.6982
 7484TIP3   OH248562   2.934   1.397   2.191  0.1922  0.9560  0.1746
 7484TIP3    H148563   2.904   1.488   2.197  0.0007  0.9297 -0.3348
 7484TIP3    H248564   2.855   1.347   2.168  0.3423  0.6886  0.2350
 7485TIP3   OH248565   3.067   2.032   1.269  0.3495  0.0650  0.6835
 7485TIP3    H148566   3.092   1.951   1.314  2.0841  0.6474  0.8341
 7485TIP3    H248567   3.065   2.098   1.339  0.1191  0.3841  0.3768
 7486TIP3   OH248568   1.625   0.593   7.182  0.1382 -0.2124  0.2885
 7486TIP3    H148569   1.648   0.677   7.142  0.3085  0.8342  2.4441
 7486TIP3    H248570   1.569   0.550   7.117 -1.9143  2.5877 -0.0156
 7487TIP3   OH248571   3.607   1.899   1.223 -0.3121  0.1311  0.8861
 7487TIP3    H148572   3.638   1.976   1.271 -1.2758  0.1912  1.4435
 7487TIP3    H248573   3.512   1.901   1.234 -0.5747  0.1203 -1.0224
 7488TIP3   OH248574   4.155   5.328   7.908 -0.1465  0.3333 -0.0437
 7488TIP3    H148575   4.086   5.352   7.846 -0.4393  0.8613  0.4804
 7488TIP3    H248576   4.210   5.406   7.914  1.8177 -0.7867 -2.1536
 7489TIP3   OH248577   7.815   1.338   6.677  0.6126 -0.2538 -0.1703
 7489TIP3    H148578   7.799   1.310   6.587  0.4255 -0.4687 -0.0688
 7489TIP3    H248579   7.871   1.270   6.714 -0.5398 -0.9473  0.3427
 7490TIP3   OH248580   2.043   4.466   7.656 -0.1594 -0.2792 -0.0569
 7490TIP3    H148581   2.076   4.383   7.620 -0.5939  0.0995 -1.3921
 7490TIP3    H248582   2.005   4.511   7.581 -1.9625  0.1624  1.0527
 7491TIP3   OH248583   3.122   2.353   0.753  0.0823 -0.2322  0.7005
 7491TIP3    H148584   3.127   2.349   0.658 -0.6724  0.3854  0.6265
 7491TIP3    H248585   3.179   2.282   0.783  0.7021 -0.1316 -0.1991
 7492TIP3   OH248586   6.111   1.322   6.922 -0.5666  0.1596  1.1423
 7492TIP3    H148587   6.178   1.362   6.867 -1.8471 -0.1907 -0.7756
 7492TIP3    H248588   6.032   1.375   6.907 -1.8110 -1.8816 -0.0353
 7493TIP3   OH248589   1.668   4.661   7.645  0.1157 -0.2345 -0.5477
 7493TIP3    H148590   1.712   4.725   7.589 -0.0088  2.1323  1.8806
 7493TIP3    H248591   1.740   4.616   7.690  0.2045  1.1487  0.7748
 7494TIP3   OH248592   0.650   5.001   6.659  0.1707 -0.0675  0.4206
 7494TIP3    H148593   0.662   5.045   6.743  0.7145 -0.6694  0.6688
 7494TIP3    H248594   0.698   5.055   6.596  0.7414 -0.2415  0.7021
 7495TIP3   OH248595   7.906   0.375   6.180  0.6160 -0.4626 -0.5047
 7495TIP3    H148596   7.948   0.416   6.256 -0.5599  0.2239 -0.1946
 7495TIP3    H248597   7.970   0.384   6.110  0.6866  1.3309 -0.2677
 7496TIP3   OH248598   2.619   5.487   1.551 -0.0135  0.2743 -0.1159
 7496TIP3    H148599   2.534   5.483   1.595 -1.0791  1.5659 -1.9148
 7496TIP3    H248600   2.679   5.518   1.619 -0.9636 -0.5953  1.1740
 7497TIP3   OH248601   0.856   4.187   6.984 -0.0393 -0.4548 -0.3478
 7497TIP3    H148602   0.780   4.230   7.022 -0.0343 -0.7229 -0.0323
 7497TIP3    H248603   0.856   4.214   6.892 -0.3675 -0.2507 -0.2866
 7498TIP3   OH248604   3.165   0.706   2.244 -0.0864 -0.3552  0.2914
 7498TIP3    H148605   3.163   0.650   2.322 -0.1408 -0.4364  0.2321
 7498TIP3    H248606   3.127   0.651   2.175 -0.1938 -0.2245  0.2470
 7499TIP3   OH248607   3.629   4.073   7.368  0.2110 -0.1958 -0.1202
 7499TIP3    H148608   3.564   4.007   7.343  0.1266 -0.5978  1.1040
 7499TIP3    H248609   3.580   4.155   7.372 -0.0342 -0.3432 -0.0776
 7500TIP3   OH248610   2.493   0.457   7.676  0.2272 -0.2249  0.1855
 7500TIP3    H148611   2.547   0.378   7.683  0.5766  0.0735  0.8953
 7500TIP3    H248612   2.494   0.496   7.763  1.3679  1.4239 -0.5176
 7501TIP3   OH248613   0.614   5.751   7.811  0.6292 -0.2206  0.1456
 7501TIP3    H148614   0.645   5.836   7.779 -2.1420  1.0924  0.6775
 7501TIP3    H248615   0.656   5.741   7.897  1.7928  0.0673 -0.3631
 7502TIP3   OH248616   7.521   0.885   6.871  0.5665  0.2578  0.3043
 7502TIP3    H148617   7.521   0.862   6.779 -1.4107 -0.1810  0.3604
 7502TIP3    H248618   7.549   0.805   6.916  0.7840  0.2321  0.1232
 7503TIP3   OH248619   5.707   2.141   1.222 -0.4768 -0.0649 -0.1478
 7503TIP3    H148620   5.789   2.131   1.174 -0.3700  1.1288 -0.2601
 7503TIP3    H248621   5.640   2.104   1.165 -0.2160  0.3941 -0.7610
 7504TIP3   OH248622   7.730   3.211   7.751  0.5733  0.0415 -0.1469
 7504TIP3    H148623   7.676   3.132   7.749  2.0392 -1.0143  0.3456
 7504TIP3    H248624   7.816   3.181   7.782  1.1506  1.8424  0.1174
 7505TIP3   OH248625   2.452   3.135   7.244  0.5870  0.4509  0.3670
 7505TIP3    H148626   2.525   3.116   7.303  1.0793  2.4831  0.4665
 7505TIP3    H248627   2.493   3.165   7.163 -0.1100 -1.4737 -0.7624
 7506TIP3   OH248628   3.405   3.722   6.061 -0.3928 -0.3478 -0.3813
 7506TIP3    H148629   3.329   3.779   6.065  0.9347  1.6255 -1.7058
 7506TIP3    H248630   3.429   3.719   5.968  0.5458 -1.7766 -0.1348
 7507TIP3   OH248631   6.467   4.242   5.603  0.2088 -0.1837  0.1661
 7507TIP3    H148632   6.439   4.157   5.636  0.0412  0.4485  1.7489
 7507TIP3    H248633   6.400   4.266   5.539  0.7095 -1.5858 -0.9411
 7508TIP3   OH248634   6.119   1.497   1.277 -0.7480 -0.1885  0.5944
 7508TIP3    H148635   6.127   1.483   1.372  0.3382 -0.2691  0.4999
 7508TIP3    H248636   6.137   1.411   1.239 -0.3978  0.0261  0.2789
 7509TIP3   OH248637   3.499   0.734   5.181  0.1653 -0.7119  0.3026
 7509TIP3    H148638   3.459   0.819   5.201 -1.4607 -1.0444 -1.3207
 7509TIP3    H248639   3.589   0.741   5.214 -0.5341  0.8873  2.0398
 7510TIP3   OH248640   0.091   4.820   7.039  0.5222  0.8059 -0.1102
 7510TIP3    H148641   0.143   4.752   7.083 -0.0459  1.3714  1.4835
 7510TIP3    H248642   0.133   4.829   6.953  1.4565 -0.5739  0.1566
 7511TIP3   OH248643   8.053   3.110   1.871  0.2191 -0.5893  0.5874
 7511TIP3    H148644   8.071   3.204   1.867  2.8976 -0.9804  1.6151
 7511TIP3    H248645   8.021   3.096   1.960  1.8343 -0.9081  1.1431
 7512TIP3   OH248646   6.995   1.832   1.760  0.2044  0.4537  0.6120
 7512TIP3    H148647   7.080   1.841   1.716 -0.1590 -0.9342 -0.4600
 7512TIP3    H248648   7.011   1.766   1.828  0.2166  0.9081  1.0489
 7513TIP3   OH248649   1.950   6.068   7.710 -0.0470 -0.0966 -0.2270
 7513TIP3    H148650   1.887   6.027   7.651  0.9484  1.0565 -2.1875
 7513TIP3    H248651   2.020   6.003   7.718  0.3512  0.1956 -1.2663
 7514TIP3   OH248652   0.291   7.017   1.206  0.1018  0.5641 -0.2298
 7514TIP3    H148653   0.337   7.070   1.141 -0.3433  0.7220 -0.4238
 7514TIP3    H248654   0.358   6.962   1.245  0.7589  1.9251  0.6458
 7515TIP3   OH248655   3.084   3.674   1.085 -0.8304  0.0984 -0.3093
 7515TIP3    H148656   3.164   3.640   1.044 -0.2790 -0.3414  1.0844
 7515TIP3    H248657   3.036   3.596   1.111  0.3178  0.2780  2.6880
 7516TIP3   OH248658   6.481   7.536   5.857 -0.5391 -0.2238  0.0191
 7516TIP3    H148659   6.388   7.554   5.844 -0.7479  0.8445  2.4097
 7516TIP3    H248660   6.484   7.443   5.878 -0.9325 -0.4867 -1.0531
 7517TIP3   OH248661   6.211   5.366   6.029 -0.1494 -0.4174 -0.5744
 7517TIP3    H148662   6.193   5.373   6.122 -0.5359  0.4997 -0.7066
 7517TIP3    H248663   6.128   5.389   5.987 -0.2234 -1.6631 -1.1372
 7518TIP3   OH248664   4.848   3.760   6.297 -0.2871 -0.1227  0.3452
 7518TIP3    H148665   4.793   3.772   6.220 -0.7794  0.9237  0.8381
 7518TIP3    H248666   4.897   3.680   6.279  1.2004  1.1855 -2.0073
 7519TIP3   OH248667   4.907   0.427   7.232 -0.6319  0.2896 -0.0101
 7519TIP3    H148668   4.976   0.389   7.178 -0.1690  0.2872  0.5632
 7519TIP3    H248669   4.853   0.352   7.257 -1.3358  0.4086 -1.1409
 7520TIP3   OH248670   2.181   1.827   0.210 -0.3054  0.6785  0.2910
 7520TIP3    H148671   2.252   1.890   0.226 -1.2655  1.7111  0.6756
 7520TIP3    H248672   2.224   1.743   0.201  0.9263  1.2067  1.0296
 7521TIP3   OH248673   2.693   4.322   6.279 -0.3702  0.4492 -0.4343
 7521TIP3    H148674   2.631   4.310   6.207 -0.7463  0.8910 -0.1883
 7521TIP3    H248675   2.778   4.325   6.237 -0.3843 -1.2904 -0.6910
 7522TIP3   OH248676   2.264   4.474   7.897 -0.1526 -0.0794  0.0163
 7522TIP3    H148677   2.178   4.453   7.859  0.2114 -1.3120 -0.1773
 7522TIP3    H248678   2.326   4.438   7.835  0.4726 -2.7796  2.0501
 7523TIP3   OH248679   3.977   0.378   7.136 -0.2663 -0.5289 -0.0951
 7523TIP3    H148680   3.938   0.290   7.135 -0.0359 -0.6340 -0.0731
 7523TIP3    H248681   3.962   0.412   7.048  0.6498 -1.0459 -0.4706
 7524TIP3   OH248682   4.863   2.142   7.191  0.3527  0.2972 -0.2191
 7524TIP3    H148683   4.957   2.148   7.172  0.4333  0.6753  0.2745
 7524TIP3    H248684   4.857   2.074   7.258  0.1665 -0.3905 -0.9159
 7525TIP3   OH248685   6.455   3.685   7.716 -0.7346  0.7358 -0.0062
 7525TIP3    H148686   6.400   3.607   7.725 -0.0192  0.3403  1.1567
 7525TIP3    H248687   6.399   3.757   7.742 -0.8408  0.3835  0.7696
 7526TIP3   OH248688   3.937   0.343   6.530  0.6253  0.7053  0.0204
 7526TIP3    H148689   3.894   0.386   6.456  0.2413 -0.4500 -0.4656
 7526TIP3    H248690   3.911   0.251   6.521  2.9603  0.0054 -0.1305
 7527TIP3   OH248691   3.362   1.237   7.273  0.2334  0.2564 -0.1589
 7527TIP3    H148692   3.283   1.182   7.277  1.1781 -1.1053  0.3700
 7527TIP3    H248693   3.336   1.318   7.317 -0.9041 -0.1373 -0.0660
 7528TIP3   OH248694   0.278   3.895   5.472  0.0597  0.3103 -0.1293
 7528TIP3    H148695   0.258   3.924   5.383 -1.0074 -0.7417 -0.2582
 7528TIP3    H248696   0.221   3.947   5.528  0.0864  0.3428 -0.1320
 7529TIP3   OH248697   1.482   2.242   1.305  0.2376  0.4873  0.1779
 7529TIP3    H148698   1.545   2.177   1.272 -0.7989 -0.9785  0.9987
 7529TIP3    H248699   1.516   2.267   1.391  1.4525  2.2446 -0.7422
 7530TIP3   OH248700   0.197   3.865   0.249 -0.2384  0.1018  0.2269
 7530TIP3    H148701   0.181   3.959   0.251  1.3347  0.3975  2.9253
 7530TIP3    H248702   0.227   3.843   0.337 -2.6808 -3.3462  0.4251
 7531TIP3   OH248703   2.723   1.912   0.457  0.1551 -0.2861 -0.2297
 7531TIP3    H148704   2.711   2.002   0.428  2.0827 -0.6725 -2.4830
 7531TIP3    H248705   2.796   1.917   0.519  0.4984 -0.3332 -0.6275
 7532TIP3   OH248706   7.225   3.771   0.366 -0.6796  0.4362  0.5959
 7532TIP3    H148707   7.145   3.814   0.336 -0.1351  0.6696 -0.6237
 7532TIP3    H248708   7.197   3.685   0.397 -1.2092 -0.2923 -1.6863
 7533TIP3   OH248709   2.872   5.943   0.434  0.4269 -0.0706  0.6809
 7533TIP3    H148710   2.896   5.871   0.377 -0.1306  0.7708 -0.6579
 7533TIP3    H248711   2.956   5.980   0.463  0.9284  1.7996 -2.6075
 7534TIP3   OH248712   1.710   7.814   0.188 -0.3359 -0.2584  0.2419
 7534TIP3    H148713   1.702   7.848   0.278 -0.6906  0.8975 -0.2084
 7534TIP3    H248714   1.758   7.882   0.141  0.2160 -1.0462 -0.3616
 7535TIP3   OH248715   7.746   0.653   6.872 -0.0141 -0.5415 -0.4979
 7535TIP3    H148716   7.691   0.614   6.940 -0.0157  0.7253  0.2623
 7535TIP3    H248717   7.721   0.608   6.792 -2.1238 -0.0707 -0.1704
 7536TIP3   OH248718   7.844   6.883   0.105 -0.2845 -0.1058 -0.2546
 7536TIP3    H148719   7.782   6.827   0.151 -0.6945 -1.4065 -2.2307
 7536TIP3    H248720   7.853   6.961   0.160 -1.4359 -1.1394  1.4820
 7537TIP3   OH248721   7.442   4.736   1.497 -0.1390 -0.2147 -0.3791
 7537TIP3    H148722   7.443   4.735   1.593  0.4929  2.4726 -0.2866
 7537TIP3    H248723   7.349   4.741   1.475 -0.2379  2.2325  0.2783
 7538TIP3   OH248724   5.472   0.634   6.401 -0.4730 -0.1102 -0.5315
 7538TIP3    H148725   5.533   0.705   6.423 -1.3162  0.2116  0.9227
 7538TIP3    H248726   5.492   0.612   6.310  1.8018 -0.0173 -0.0968
 7539TIP3   OH248727   1.163   2.993   7.908  0.3252 -0.4433  0.6296
 7539TIP3    H148728   1.151   2.909   7.863 -0.8058  0.6795 -1.3509
 7539TIP3    H248729   1.229   3.039   7.855 -1.5386  1.1918 -0.3874
 7540TIP3   OH248730   5.073   0.069   7.384 -0.2685  0.2113 -0.1699
 7540TIP3    H148731   5.008   0.056   7.453  1.0578 -2.1404  0.8033
 7540TIP3    H248732   5.023   0.075   7.303 -1.7523 -1.6578  0.5260
 7541TIP3   OH248733   3.263   1.140   6.921  1.1038 -0.1892 -0.4201
 7541TIP3    H148734   3.193   1.179   6.973  0.7712  0.5128 -1.3746
 7541TIP3    H248735   3.235   1.050   6.906  3.1293 -1.8580  4.1405
 7542TIP3   OH248736   0.632   7.034   5.450 -0.5736 -0.6316 -0.7023
 7542TIP3    H148737   0.555   7.077   5.487  0.6211 -0.6533  2.0096
 7542TIP3    H248738   0.653   7.087   5.373 -1.7930  0.9040 -0.0462
 7543TIP3   OH248739   5.622   7.331   0.293  0.2073  0.2879  0.3582
 7543TIP3    H148740   5.589   7.420   0.286 -0.5352  0.0926  1.1950
 7543TIP3    H248741   5.598   7.289   0.210  1.5752  1.1605 -0.5319
 7544TIP3   OH248742   4.737   3.694   7.301 -0.5857 -0.3062 -0.0663
 7544TIP3    H148743   4.775   3.649   7.377 -0.3511  1.7323  1.0885
 7544TIP3    H248744   4.804   3.758   7.276 -1.2522 -0.0061 -1.1228
 7545TIP3   OH248745   3.601   3.937   1.468  0.6053  0.4065  0.3493
 7545TIP3    H148746   3.641   3.904   1.387 -1.3201  1.6404 -1.1819
 7545TIP3    H248747   3.562   3.859   1.509 -0.3763  0.0834 -1.1184
 7546TIP3   OH248748   2.034   3.264   7.906 -0.3275 -0.0191 -0.1371
 7546TIP3    H148749   1.962   3.268   7.843  0.1602 -1.7140 -0.8584
 7546TIP3    H248750   1.991   3.244   7.989 -0.8909  1.3532 -0.0707
 7547TIP3   OH248751   1.690   5.785   0.121  0.1753 -0.1830  0.5253
 7547TIP3    H148752   1.696   5.783   0.216  1.2258  0.1077  0.4874
 7547TIP3    H248753   1.767   5.835   0.094 -1.2415  1.5968 -0.3852
 7548TIP3   OH248754   3.609   2.298   6.885 -0.6870  0.1708 -0.2091
 7548TIP3    H148755   3.627   2.215   6.929  0.4947  0.8995  0.7859
 7548TIP3    H248756   3.666   2.298   6.809 -0.8555 -0.0337 -0.3330
 7549TIP3   OH248757   3.453   3.175   2.540  0.1578 -0.5690  0.2474
 7549TIP3    H148758   3.359   3.167   2.555 -0.2260 -0.0793 -1.5671
 7549TIP3    H248759   3.472   3.267   2.552  0.3157 -0.5970  0.2183
 7550TIP3   OH248760   5.976   4.532   1.154  0.6308 -0.1059 -0.8013
 7550TIP3    H148761   6.034   4.542   1.229  1.7316  0.7642 -1.7405
 7550TIP3    H248762   6.035   4.514   1.080 -0.2169  1.3772 -1.8917
 7551TIP3   OH248763   1.044   0.152   7.848  0.0811 -0.2782  0.0189
 7551TIP3    H148764   1.076   0.072   7.889 -0.3198 -0.1448  0.6079
 7551TIP3    H248765   0.965   0.174   7.897 -1.9174 -1.4935 -2.4058
 7552TIP3   OH248766   2.957   5.530   5.291 -0.2369  0.0130 -0.7449
 7552TIP3    H148767   2.966   5.438   5.317 -0.6810 -0.1778 -1.2295
 7552TIP3    H248768   2.862   5.543   5.281 -0.0724 -0.1461 -2.9357
 7553TIP3   OH248769   7.379   7.477   0.719 -0.4400  0.5440 -0.6793
 7553TIP3    H148770   7.472   7.467   0.699 -0.6314  0.2360 -1.4454
 7553TIP3    H248771   7.352   7.555   0.670 -0.7206  0.2854 -0.9389
 7554TIP3   OH248772   0.232   3.830   1.254  0.1413  0.2913  0.2956
 7554TIP3    H148773   0.155   3.811   1.308 -0.4149  2.7745  0.4661
 7554TIP3    H248774   0.196   3.860   1.170  0.9737 -0.2648 -0.2828
 7555TIP3   OH248775   6.956   2.804   1.397  0.6861 -0.6993  0.0872
 7555TIP3    H148776   6.975   2.829   1.488 -2.2637 -0.7539  0.8064
 7555TIP3    H248777   6.941   2.887   1.352  3.7092 -0.5461 -0.8718
 7556TIP3   OH248778   6.509   0.506   0.943 -0.0896  0.5483  0.0059
 7556TIP3    H148779   6.573   0.535   0.878 -0.5736  1.6841  0.0120
 7556TIP3    H248780   6.560   0.494   1.023  0.1759  1.1395 -0.0709
 7557TIP3   OH248781   2.612   6.821   1.197  0.3176  0.3336  0.0977
 7557TIP3    H148782   2.535   6.821   1.140  0.1297  1.5109  0.3263
 7557TIP3    H248783   2.652   6.735   1.184 -0.2467  0.2338 -1.0885
 7558TIP3   OH248784   3.345   0.732   7.375  0.3017 -0.2046  0.0654
 7558TIP3    H148785   3.390   0.746   7.458 -1.8236 -0.0197  1.2520
 7558TIP3    H248786   3.366   0.810   7.323  0.0893  0.6417  1.2003
 7559TIP3   OH248787   0.762   5.859   0.094 -0.2082  0.4934  0.6982
 7559TIP3    H148788   0.746   5.952   0.084 -0.0933  0.4596  0.1851
 7559TIP3    H248789   0.852   5.853   0.127  0.1738  0.5286 -0.3037
 7560TIP3   OH248790   6.242   3.864   0.916 -0.3644  0.6605 -0.2838
 7560TIP3    H148791   6.184   3.939   0.907 -0.2029  0.8484  0.2520
 7560TIP3    H248792   6.216   3.821   0.997  0.9944  1.4152  0.5847
 7561TIP3   OH248793   3.094   4.160   0.370 -0.5793  0.5538  0.3684
 7561TIP3    H148794   3.056   4.072   0.364  0.3502  0.2224 -1.4325
 7561TIP3    H248795   3.058   4.207   0.295  1.2940  0.6914 -0.5216
 7562TIP3   OH248796   0.398   2.019   1.597  0.4892  0.0821 -0.2729
 7562TIP3    H148797   0.372   2.107   1.624  0.7889 -0.0187  0.3591
 7562TIP3    H248798   0.388   2.020   1.502  0.0512  0.6536 -0.2311
 7563TIP3   OH248799   5.578   0.661   6.938 -0.0336  1.0654  0.0747
 7563TIP3    H148800   5.518   0.682   6.867 -1.0914 -1.3030  0.1757
 7563TIP3    H248801   5.619   0.578   6.912 -0.5288  0.0752  2.2204
 7564TIP3   OH248802   4.805   3.343   1.579  0.0343 -0.3407  0.1280
 7564TIP3    H148803   4.720   3.381   1.555  0.0317  0.0074  0.6827
 7564TIP3    H248804   4.792   3.309   1.667  0.8114  0.8068  0.7019
 7565TIP3   OH248805   4.295   3.433   6.624 -0.3865  0.0388  0.0005
 7565TIP3    H148806   4.289   3.347   6.581 -0.0849  0.5173 -1.0323
 7565TIP3    H248807   4.267   3.495   6.558  1.4080  0.9313  0.0023
 7566TIP3   OH248808   3.564   1.813   6.916  0.1951 -0.8492 -0.3668
 7566TIP3    H148809   3.479   1.843   6.885 -0.2392 -1.8448 -0.1971
 7566TIP3    H248810   3.547   1.726   6.953  1.4876 -1.5682 -1.3619
 7567TIP3   OH248811   4.556   3.118   0.499 -0.0442 -0.0981 -0.3219
 7567TIP3    H148812   4.545   3.152   0.410 -2.2265  0.8937  0.2603
 7567TIP3    H248813   4.547   3.023   0.490  3.0890 -0.3788 -1.5546
 7568TIP3   OH248814   3.024   6.954   0.724 -0.0754  0.0769 -0.0189
 7568TIP3    H148815   3.006   6.860   0.733 -0.5268  0.2682  1.2175
 7568TIP3    H248816   3.094   6.971   0.787  1.4783  0.1981 -1.6793
 7569TIP3   OH248817   0.842   6.815   0.748  0.0783  0.3307 -0.2918
 7569TIP3    H148818   0.788   6.850   0.677 -0.3355 -1.2755 -0.7958
 7569TIP3    H248819   0.908   6.762   0.704  1.8688  1.9265  0.3430
 7570TIP3   OH248820   2.683   2.518   6.668  0.3450  0.0943 -0.2738
 7570TIP3    H148821   2.740   2.529   6.745 -0.0430  1.3873 -0.1467
 7570TIP3    H248822   2.611   2.464   6.700  0.7384 -0.3018 -0.0334
 7571TIP3   OH248823   7.589   0.212   0.277  0.2891 -1.0420 -0.4280
 7571TIP3    H148824   7.663   0.269   0.256  1.5508 -1.6973  1.9137
 7571TIP3    H248825   7.585   0.211   0.373 -0.6279 -3.6438 -0.3980
 7572TIP3   OH248826   0.646   6.176   0.986  0.5479 -0.0178 -0.0348
 7572TIP3    H148827   0.611   6.227   1.059  1.2884 -0.7448  0.8434
 7572TIP3    H248828   0.737   6.205   0.978  0.0395  1.2584 -1.7677
 7573TIP3   OH248829   7.590   3.039   2.397 -0.8435  0.6111  0.0362
 7573TIP3    H148830   7.648   3.114   2.384 -0.9804  0.6978 -0.0670
 7573TIP3    H248831   7.546   3.056   2.480  0.1483 -0.0192  0.7213
 7574TIP3   OH248832   3.466   2.098   7.803 -0.1672  0.0961 -0.1465
 7574TIP3    H148833   3.524   2.174   7.799 -1.0619  0.7611 -0.9506
 7574TIP3    H248834   3.481   2.052   7.720  0.5872 -0.7848  0.4645
 7575TIP3   OH248835   1.789   2.858   6.942 -0.2759  0.2378 -0.5183
 7575TIP3    H148836   1.795   2.937   6.888  1.9201 -1.0747 -2.3413
 7575TIP3    H248837   1.780   2.891   7.031  1.7908  2.6307 -1.0787
 7576TIP3   OH248838   7.546   5.510   0.503  0.1319 -0.6538  0.1252
 7576TIP3    H148839   7.544   5.528   0.597 -1.1597 -0.1571  0.0182
 7576TIP3    H248840   7.598   5.581   0.466 -2.2178  1.1781  0.0974
 7577TIP3   OH248841   6.385   7.570   6.942  0.0790  0.3081  0.2457
 7577TIP3    H148842   6.446   7.522   6.886  2.2147  0.9386  1.8924
 7577TIP3    H248843   6.317   7.506   6.963  1.1448 -1.0407 -0.2030
 7578TIP3   OH248844   7.224   0.210   7.664 -0.8245  0.5599  0.0193
 7578TIP3    H148845   7.318   0.203   7.649 -0.5621 -0.4591  1.8132
 7578TIP3    H248846   7.214   0.284   7.723 -1.1516  0.6330 -0.1239
 7579TIP3   OH248847   4.118   1.627   6.430 -0.0123  0.4813 -1.0119
 7579TIP3    H148848   4.099   1.549   6.377 -1.3085  1.0593 -1.4352
 7579TIP3    H248849   4.037   1.645   6.477  0.6754  0.8443  0.0740
 7580TIP3   OH248850   2.659   6.579   1.532  0.0185  0.3244 -0.2270
 7580TIP3    H148851   2.595   6.545   1.595  1.4695 -1.3981  0.4169
 7580TIP3    H248852   2.726   6.621   1.587  0.6488 -0.0470 -0.6958
 7581TIP3   OH248853   4.810   4.211   2.552  0.1512 -0.1113  0.3928
 7581TIP3    H148854   4.818   4.117   2.567  0.1221 -0.4470 -1.4655
 7581TIP3    H248855   4.720   4.232   2.575 -0.0055 -0.6442  0.2689
 7582TIP3   OH248856   2.003   7.215   6.698 -0.4056 -0.3453  0.7195
 7582TIP3    H148857   1.908   7.201   6.695 -0.5202  0.4271  0.4733
 7582TIP3    H248858   2.026   7.237   6.607 -0.1938  0.6687  1.0029
 7583TIP3   OH248859   1.638   6.879   0.385 -0.3365 -0.1117  0.7853
 7583TIP3    H148860   1.732   6.889   0.397 -0.0388  0.4538 -1.5125
 7583TIP3    H248861   1.604   6.968   0.386 -0.5327 -0.1579 -0.3333
 7584TIP3   OH248862   1.397   7.065   6.652  0.0741  0.1232  0.1062
 7584TIP3    H148863   1.338   6.999   6.616  1.5335 -1.2715  0.1675
 7584TIP3    H248864   1.437   7.106   6.575 -0.0002  0.1585  0.0859
 7585TIP3   OH248865   6.654   5.590   6.456  0.2493 -0.0009  0.0167
 7585TIP3    H148866   6.604   5.611   6.378 -0.2069  0.3041  0.3853
 7585TIP3    H248867   6.677   5.498   6.446 -0.3750 -0.1371 -0.1624
 7586TIP3   OH248868   7.046   5.968   6.117 -0.0206  0.0367 -0.1064
 7586TIP3    H148869   7.118   5.995   6.060  0.6683  0.7689  1.0572
 7586TIP3    H248870   6.999   6.050   6.135 -0.2441 -0.1834  0.3284
 7587TIP3   OH248871   7.094   5.824   2.947 -0.0670 -1.0710  0.2235
 7587TIP3    H148872   7.132   5.738   2.936  1.1842 -0.3588 -1.4358
 7587TIP3    H248873   7.093   5.862   2.859  0.4577  1.0111  1.0399
 7588TIP3   OH248874   2.884   7.784   6.278  0.7481 -0.0386 -0.3537
 7588TIP3    H148875   2.822   7.719   6.245  0.6319  0.4894 -1.2058
 7588TIP3    H248876   2.952   7.733   6.321 -0.2453 -0.6324  0.5687
 7589TIP3   OH248877   4.596   1.214   0.840 -0.0156  0.4855 -0.1830
 7589TIP3    H148878   4.579   1.184   0.751  0.5249  0.0430 -0.1422
 7589TIP3    H248879   4.510   1.242   0.873 -0.0481  1.5961 -1.1742
 7590TIP3   OH248880   5.486   0.538   5.824  0.4714  0.2837  0.7704
 7590TIP3    H148881   5.413   0.600   5.834 -0.1200 -0.2843  0.1241
 7590TIP3    H248882   5.564   0.592   5.828  0.0465  0.8528  1.9739
 7591TIP3   OH248883   5.406   4.631   7.070  0.2375 -0.0441 -0.2306
 7591TIP3    H148884   5.423   4.709   7.124  2.7200  0.0569 -1.0084
 7591TIP3    H248885   5.367   4.666   6.990  0.6425  0.3438 -0.2672
 7592TIP3   OH248886   5.064   4.421   6.543 -0.4310  0.1393  0.4725
 7592TIP3    H148887   5.023   4.432   6.457 -0.2125 -1.2132  0.1760
 7592TIP3    H248888   5.155   4.448   6.531 -0.2909 -0.4694  0.1658
 7593TIP3   OH248889   5.008   3.012   1.712  0.4336  0.2206 -0.6205
 7593TIP3    H148890   5.046   3.037   1.628  2.5168 -3.8801 -1.1548
 7593TIP3    H248891   4.923   2.973   1.689 -0.5217  2.0350 -0.3465
 7594TIP3   OH248892   8.078   5.296   1.099  0.0334  0.5557  0.0436
 7594TIP3    H148893   8.061   5.296   1.193  1.4931  1.9918  0.3483
 7594TIP3    H248894   8.103   5.386   1.079 -0.0621  0.2274 -1.6945
 7595TIP3   OH248895   1.211   3.821   0.061  0.2908 -0.0714 -0.0202
 7595TIP3    H148896   1.298   3.816   0.102  0.0112  0.1814  0.6229
 7595TIP3    H248897   1.222   3.780  -0.025  1.1415  0.3207 -0.1049
 7596TIP3   OH248898   4.716   6.073   6.935 -0.3618  0.3309  0.1671
 7596TIP3    H148899   4.639   6.103   6.983 -0.7773  1.0099 -0.8887
 7596TIP3    H248900   4.723   6.132   6.860  0.1343 -0.8203 -0.7335
 7597TIP3   OH248901   6.446   3.488   7.166  0.5270  0.1529 -0.3177
 7597TIP3    H148902   6.403   3.521   7.245  1.4942 -0.3998  0.4658
 7597TIP3    H248903   6.425   3.395   7.164 -0.8335  0.4490 -1.6213
 7598TIP3   OH248904   2.565   5.489   2.396 -0.0685 -0.1969  0.0126
 7598TIP3    H148905   2.647   5.457   2.358 -0.3166 -0.4144 -0.3478
 7598TIP3    H248906   2.592   5.542   2.471  0.6383  2.3048 -1.8440
 7599TIP3   OH248907   5.186   5.083   6.828 -0.0613  0.0929  0.5100
 7599TIP3    H148908   5.176   5.049   6.917  3.2460 -1.5470  0.4230
 7599TIP3    H248909   5.240   5.161   6.838  1.9682 -1.1655 -0.1037
 7600TIP3   OH248910   1.314   1.004   7.742 -0.3857 -0.3137 -0.3061
 7600TIP3    H148911   1.257   1.080   7.760 -0.2329 -0.1078 -0.6923
 7600TIP3    H248912   1.266   0.930   7.779 -0.1889  0.0697  0.7537
 7601TIP3   OH248913   0.201   4.142   0.309 -0.3269  0.0831  0.0879
 7601TIP3    H148914   0.279   4.188   0.276 -0.0415 -1.2071 -1.0861
 7601TIP3    H248915   0.205   4.156   0.404  1.3596  0.0476  0.0648
 7602TIP3   OH248916   3.973   3.229   6.648  0.1823 -0.3992 -0.5402
 7602TIP3    H148917   4.020   3.198   6.726 -1.5527  0.4753  0.9174
 7602TIP3    H248918   4.029   3.297   6.612  0.0515  0.6919  1.2128
 7603TIP3   OH248919   4.321   4.068   0.933 -0.3316 -0.8626 -0.3886
 7603TIP3    H148920   4.404   4.103   0.964  0.2798 -1.7104 -1.0415
 7603TIP3    H248921   4.336   3.975   0.920 -0.9548 -0.7949 -1.8637
 7604TIP3   OH248922   2.669   5.701   7.848  0.2986  0.1144  0.4308
 7604TIP3    H148923   2.587   5.720   7.893 -0.2036 -1.5664  0.3006
 7604TIP3    H248924   2.706   5.626   7.895  0.8339 -0.3173 -0.6202
 7605TIP3   OH248925   5.675   7.348   1.669  0.3882 -0.3964  0.7307
 7605TIP3    H148926   5.653   7.261   1.635  0.0954 -0.3381  0.7664
 7605TIP3    H248927   5.751   7.375   1.618 -1.1652  0.4975 -1.2166
 7606TIP3   OH248928   7.353   3.877   6.635  0.3576  0.3310  0.6077
 7606TIP3    H148929   7.406   3.943   6.590 -0.5197 -0.9919 -2.6481
 7606TIP3    H248930   7.275   3.925   6.664  0.8031  1.1776  0.4269
 7607TIP3   OH248931   5.829   2.463   7.728  0.3216 -0.6531 -0.1079
 7607TIP3    H148932   5.907   2.464   7.672  0.1579  1.4407 -0.3882
 7607TIP3    H248933   5.832   2.546   7.775 -0.6850 -1.4363  1.4062
 7608TIP3   OH248934   0.024   3.037   0.540 -0.3912  0.1177 -0.0085
 7608TIP3    H148935   0.066   3.119   0.567  0.1549 -0.6044  1.4648
 7608TIP3    H248936  -0.011   3.001   0.622  0.7686 -1.8872 -0.3350
 7609TIP3   OH248937   6.644   5.668   1.299 -0.2451  0.6074  0.1419
 7609TIP3    H148938   6.701   5.683   1.224 -0.5117 -1.1511 -0.4584
 7609TIP3    H248939   6.623   5.575   1.295 -1.0948  0.6880  1.8228
 7610TIP3   OH248940   8.076   5.936   6.841 -0.2384  0.4339  0.0629
 7610TIP3    H148941   8.171   5.934   6.835 -0.2130  0.6670  0.3742
 7610TIP3    H248942   8.054   5.860   6.896 -0.4792 -1.7424 -2.8094
 7611TIP3   OH248943   6.687   7.102   7.802  0.4168 -0.3522  0.2527
 7611TIP3    H148944   6.719   7.191   7.787  2.4165 -0.9112  1.0191
 7611TIP3    H248945   6.642   7.107   7.887  1.2383 -0.2391  0.6887
 7612TIP3   OH248946   2.087   4.749   0.639 -0.3712  0.2149 -0.3720
 7612TIP3    H148947   1.993   4.735   0.630 -0.2733 -0.0625 -1.1133
 7612TIP3    H248948   2.117   4.764   0.549 -0.0227  2.4251  0.0580
 7613TIP3   OH248949   5.328   7.007   6.886 -0.0610  0.4547 -0.7586
 7613TIP3    H148950   5.268   7.070   6.927  0.4822 -0.0468  0.8940
 7613TIP3    H248951   5.285   6.923   6.896 -0.8910  0.5161 -3.1656
 7614TIP3   OH248952   1.803   0.649   0.415 -0.1225 -0.0021  0.1539
 7614TIP3    H148953   1.875   0.662   0.477  2.0291  0.7957 -2.3202
 7614TIP3    H248954   1.847   0.629   0.332 -2.8696 -2.1191 -0.9346
 7615TIP3   OH248955   0.836   1.438   6.273 -0.6792 -0.0631 -0.5100
 7615TIP3    H148956   0.769   1.436   6.204 -0.7926  1.8199 -0.5139
 7615TIP3    H248957   0.819   1.520   6.320 -0.4812 -1.2107  1.6575
 7616TIP3   OH248958   0.805   5.490   5.671  0.4117  0.0181  0.0981
 7616TIP3    H148959   0.811   5.418   5.607 -1.4385  0.3225 -0.5044
 7616TIP3    H248960   0.859   5.559   5.633 -0.1233 -0.0442 -0.8263
 7617TIP3   OH248961   2.982   6.489   6.702 -0.6718 -0.1422  0.7073
 7617TIP3    H148962   2.990   6.429   6.628  0.7951  0.2253  0.5265
 7617TIP3    H248963   3.049   6.555   6.685 -1.3479  0.7944  1.5968
 7618TIP3   OH248964   7.539   6.046   2.286  0.0489 -0.1027 -0.0468
 7618TIP3    H148965   7.573   6.119   2.337 -0.5554  0.2398 -0.1125
 7618TIP3    H248966   7.575   6.058   2.198 -0.6192  0.5413 -0.2453
 7619TIP3   OH248967   3.661   0.921   6.790 -0.4822 -0.1151 -0.5515
 7619TIP3    H148968   3.609   1.001   6.801 -0.8380 -0.3242 -0.7050
 7619TIP3    H248969   3.719   0.920   6.866 -0.6924  0.1282 -0.3853
 7620TIP3   OH248970   5.750   4.881   6.750 -0.4618  0.1588 -0.3606
 7620TIP3    H148971   5.833   4.841   6.724 -0.5891 -0.2162 -0.1991
 7620TIP3    H248972   5.746   4.868   6.845 -0.4879  0.5909 -0.2995
 7621TIP3   OH248973   3.933   7.963   0.926  0.2222 -0.3068 -0.4845
 7621TIP3    H148974   3.913   8.055   0.939  0.5696 -0.3907  0.6913
 7621TIP3    H248975   4.007   7.963   0.865  0.5866  0.2107 -0.0462
 7622TIP3   OH248976   0.900   7.543   0.341 -0.1010  0.0336 -0.7617
 7622TIP3    H148977   0.894   7.637   0.362 -3.1288 -0.0569 -0.8007
 7622TIP3    H248978   0.830   7.528   0.277 -0.0261 -2.3552 -0.3730
 7623TIP3   OH248979   6.514   3.379   7.548  0.3504 -0.0605 -0.1610
 7623TIP3    H148980   6.556   3.379   7.633 -0.9009  0.1727  0.4802
 7623TIP3    H248981   6.520   3.288   7.518  0.0219 -0.3302  0.5699
 7624TIP3   OH248982   5.245   0.231   6.523 -0.0147  0.8989 -0.7548
 7624TIP3    H148983   5.306   0.299   6.550 -0.7821  0.5672  2.0531
 7624TIP3    H248984   5.240   0.170   6.597 -1.8896 -0.3947 -1.8320
 7625TIP3   OH248985   3.996   2.332   7.674  0.0850 -0.1232  0.4221
 7625TIP3    H148986   3.947   2.397   7.724 -0.2956  0.4378 -0.6401
 7625TIP3    H248987   4.080   2.374   7.657 -0.8598  1.0080 -1.9949
 7626TIP3   OH248988   0.206   7.190   6.738  0.2886 -0.3410 -0.0660
 7626TIP3    H148989   0.175   7.211   6.650 -1.9395  0.5868  0.8655
 7626TIP3    H248990   0.260   7.264   6.763 -2.2334  1.3742  0.7249
 7627TIP3   OH248991   3.901   3.483   7.167  0.9349 -0.4560 -0.1974
 7627TIP3    H148992   3.967   3.511   7.231  2.1184 -0.1961 -1.4830
 7627TIP3    H248993   3.951   3.468   7.087 -0.7096  0.8392 -1.5421
 7628TIP3   OH248994   6.975   2.575   6.702  0.1610  0.3536  0.1695
 7628TIP3    H148995   7.011   2.662   6.722  0.6702  0.2144 -0.1295
 7628TIP3    H248996   6.889   2.575   6.744 -0.3166  1.4098 -0.7470
 7629TIP3   OH248997   4.082   3.029   0.260  0.1541 -0.5536  0.5428
 7629TIP3    H148998   4.064   3.074   0.342 -2.9727 -0.7865  0.1455
 7629TIP3    H248999   4.112   3.098   0.201  1.1281 -0.1443  1.4935
 7630TIP3   OH249000   4.226   0.407   6.883  0.1340  0.0717 -0.2719
 7630TIP3    H149001   4.136   0.381   6.863  0.0487  0.5562 -0.5363
 7630TIP3    H249002   4.217   0.493   6.923  0.3284 -0.6817  1.4811
 7631TIP3   OH249003   1.504   7.641   7.318 -0.1915  0.2320  0.2546
 7631TIP3    H149004   1.474   7.669   7.404 -0.1684 -1.7068  0.9170
 7631TIP3    H249005   1.544   7.556   7.332 -2.0352 -1.1270 -1.9702
 7632TIP3   OH249006   3.547   1.538   6.865  0.0711 -0.2055 -0.3955
 7632TIP3    H149007   3.551   1.502   6.954 -0.7229 -2.5163 -1.2229
 7632TIP3    H249008   3.583   1.469   6.810  0.7317  1.2734 -1.8761
 7633TIP3   OH249009   7.626   1.190   7.451 -0.4944 -0.2772  0.1141
 7633TIP3    H149010   7.556   1.165   7.511 -1.1302 -0.8937 -0.8667
 7633TIP3    H249011   7.704   1.196   7.507 -1.4570  1.3205  1.3887
 7634TIP3   OH249012   4.537   7.932   6.496 -0.5112  0.0664 -0.5355
 7634TIP3    H149013   4.587   7.942   6.577 -1.1384 -0.3259 -0.0821
 7634TIP3    H249014   4.600   7.950   6.426  0.4188 -0.9872 -0.0094
 7635TIP3   OH249015   5.496   0.598   1.412 -0.1014 -0.1822 -0.0818
 7635TIP3    H149016   5.457   0.681   1.441 -0.3751 -0.1106 -0.6359
 7635TIP3    H249017   5.566   0.582   1.475  1.5800  1.7243 -1.3277
 7636TIP3   OH249018   3.475   5.772   7.289  0.2572 -0.2350 -0.0162
 7636TIP3    H149019   3.563   5.740   7.269  0.1285  0.3571 -1.7128
 7636TIP3    H249020   3.422   5.692   7.297  0.6282 -0.5523 -0.6618
 7637TIP3   OH249021   6.247   7.441   0.372  0.5137  0.5613  0.2527
 7637TIP3    H149022   6.328   7.426   0.323  0.3424 -2.2638  0.6839
 7637TIP3    H249023   6.275   7.446   0.463  0.3331  1.1708  0.2812
 7638TIP3   OH249024   7.493   0.976   7.166 -0.3098 -0.0540  0.0738
 7638TIP3    H149025   7.569   0.958   7.110 -0.5371 -0.9518  0.0499
 7638TIP3    H249026   7.448   0.892   7.173 -1.5103  0.5530 -0.2284
 7639TIP3   OH249027   1.619   7.664   0.493  0.0761 -0.0997 -0.0153
 7639TIP3    H149028   1.600   7.601   0.562 -0.6307  0.2277  0.0976
 7639TIP3    H249029   1.713   7.655   0.477 -0.2053 -2.0785 -0.8785
 7640TIP3   OH249030   3.772   1.575   7.090 -0.1654 -0.2251  0.0689
 7640TIP3    H149031   3.697   1.518   7.075 -0.3276  0.2205 -0.8755
 7640TIP3    H249032   3.743   1.634   7.160 -0.7170 -0.0264 -0.3176
 7641TIP3   OH249033   2.986   6.319   0.471 -0.0168  0.1023 -0.2804
 7641TIP3    H149034   2.892   6.310   0.461 -0.0213 -1.3168  0.6287
 7641TIP3    H249035   3.009   6.254   0.538  1.4579  1.1512  0.2929
 7642TIP3   OH249036   6.513   5.228   1.492  0.1731 -0.6711  0.7326
 7642TIP3    H149037   6.568   5.280   1.434  0.2696 -2.1135 -0.5188
 7642TIP3    H249038   6.467   5.293   1.546 -0.6351  0.7893 -1.5773
 7643TIP3   OH249039   7.040   4.826   0.024 -0.2808  0.0897 -0.4267
 7643TIP3    H149040   6.979   4.785   0.085  1.1798 -0.3769  0.7754
 7643TIP3    H249041   7.005   4.915   0.012  0.1014  0.6937  2.2297
 7644TIP3   OH249042   1.320   1.772   0.159  0.1438  0.0546 -0.0269
 7644TIP3    H149043   1.388   1.738   0.216  1.7788 -0.0503 -1.9197
 7644TIP3    H249044   1.331   1.867   0.161  1.2336 -0.0131 -1.2813
 7645TIP3   OH249045   7.918   2.231   1.216  0.8060  0.1416  0.0494
 7645TIP3    H149046   7.937   2.199   1.128  3.0109  1.6218 -0.0680
 7645TIP3    H249047   7.857   2.303   1.203 -1.3367 -1.5421  0.0582
 7646TIP3   OH249048   4.181   0.273   6.064  0.0910  0.1639  0.3111
 7646TIP3    H149049   4.176   0.362   6.099 -1.0595 -0.2653  1.2830
 7646TIP3    H249050   4.118   0.223   6.115 -0.2436 -0.9351 -1.1088
 7647TIP3   OH249051   3.515   3.222   0.201 -0.0747  0.3258 -0.3348
 7647TIP3    H149052   3.525   3.159   0.272  1.4820  0.8784 -0.0220
 7647TIP3    H249053   3.555   3.180   0.125  1.9537  1.2857  0.1305
 7648TIP3   OH249054   0.760   3.718   0.214 -0.1152 -0.1793 -0.0754
 7648TIP3    H149055   0.829   3.762   0.263  0.3206 -0.1837 -0.6746
 7648TIP3    H249056   0.795   3.631   0.194  0.1034  0.1483 -1.1976
 7649TIP3   OH249057   6.567   3.021   6.955 -0.0226 -0.3756  0.7513
 7649TIP3    H149058   6.517   2.946   6.990 -1.4438 -0.1944 -0.7815
 7649TIP3    H249059   6.659   2.999   6.972 -0.5548 -0.8557  3.4224
 7650TIP3   OH249060   3.315   6.874   7.305 -1.0545  0.1879 -0.1681
 7650TIP3    H149061   3.315   6.853   7.399  1.9951  0.3507 -0.0136
 7650TIP3    H249062   3.255   6.948   7.296 -0.1539  1.2586  1.9764
 7651TIP3   OH249063   0.463   6.831   6.889  0.3519  0.2133 -0.3148
 7651TIP3    H149064   0.524   6.792   6.827  0.7121 -0.6131  0.5344
 7651TIP3    H249065   0.404   6.883   6.835  2.7871  2.4376 -1.0415
 7652TIP3   OH249066   0.732   0.175   7.407  0.4045 -0.4893 -0.3079
 7652TIP3    H149067   0.649   0.151   7.447  0.7179 -1.7663 -0.3832
 7652TIP3    H249068   0.793   0.183   7.481  0.3214  0.0069 -0.2903
 7653TIP3   OH249069   1.953   5.452   2.123 -0.0368 -0.0308  0.2728
 7653TIP3    H149070   1.883   5.513   2.101  0.5521 -0.0285 -1.8546
 7653TIP3    H249071   1.958   5.454   2.218 -0.6006  2.5730  0.3234
 7654TIP3   OH249072   5.164   1.500   0.389  0.4190  0.1533 -0.3686
 7654TIP3    H149073   5.079   1.501   0.346 -0.0244 -1.9324  0.3637
 7654TIP3    H249074   5.217   1.439   0.339  0.8677 -0.0161  0.2965
 7655TIP3   OH249075   0.624   7.351   5.128 -0.5144  0.0361 -0.1557
 7655TIP3    H149076   0.595   7.439   5.104  0.3962  0.0586 -1.2694
 7655TIP3    H249077   0.700   7.335   5.072 -0.1311 -1.1172  0.6630
 7656TIP3   OH249078   4.834   6.199   0.080  0.1168  0.0549  0.3134
 7656TIP3    H149079   4.912   6.143   0.077 -0.3165 -0.5248 -0.6720
 7656TIP3    H249080   4.868   6.286   0.102  1.0018 -0.2652  0.2655
 7657TIP3   OH249081   2.759   1.882   6.453 -0.1773  0.3882  0.1766
 7657TIP3    H149082   2.854   1.887   6.465 -0.1679 -0.0299  0.2872
 7657TIP3    H249083   2.726   1.859   6.540 -0.3163 -0.2122 -0.0320
 7658TIP3   OH249084   0.597   3.048   0.410  0.1265  0.0224 -0.8635
 7658TIP3    H149085   0.676   3.028   0.460 -0.1557 -0.8477 -0.7344
 7658TIP3    H249086   0.605   3.140   0.386  0.5728  0.2927  0.2528
 7659TIP3   OH249087   0.428   6.236   7.583  0.7175  0.0941  0.6291
 7659TIP3    H149088   0.441   6.296   7.656  1.7135  1.9274 -0.9546
 7659TIP3    H249089   0.369   6.283   7.523  0.0360 -1.3004  0.1570
 7660TIP3   OH249090   4.747   1.973   6.860 -0.3687 -0.3963 -0.2608
 7660TIP3    H149091   4.787   2.060   6.863 -0.4639 -0.2441 -2.1520
 7660TIP3    H249092   4.705   1.963   6.946 -1.8069  2.1595 -0.5544
 7661TIP3   OH249093   2.395   5.969   0.251 -0.1843  0.4326 -0.4312
 7661TIP3    H149094   2.305   5.993   0.273 -0.8032 -1.6779 -0.4086
 7661TIP3    H249095   2.442   5.972   0.335 -0.9160 -1.0298  0.0722
 7662TIP3   OH249096   4.224   2.521   7.662  0.4750  0.7509 -0.2371
 7662TIP3    H149097   4.294   2.456   7.672 -1.4183 -1.4284 -0.4235
 7662TIP3    H249098   4.195   2.510   7.572  0.7783  2.6479 -0.6077
 7663TIP3   OH249099   4.825   4.722   0.450 -0.4091  0.0396 -0.2825
 7663TIP3    H149100   4.738   4.759   0.462 -0.1425  0.9780 -1.0351
 7663TIP3    H249101   4.842   4.732   0.356  1.2399  1.6286  0.1269
 7664TIP3   OH249102   5.596   0.061   0.752  0.1069  0.4572 -0.9856
 7664TIP3    H149103   5.511   0.053   0.794  0.6184  1.0537  0.1923
 7664TIP3    H249104   5.579   0.041   0.660 -1.1899 -0.0068 -0.6641
 7665TIP3   OH249105   4.393   7.386   6.311 -0.2602 -0.0169  0.0298
 7665TIP3    H149106   4.398   7.470   6.267 -1.5582 -0.4653 -1.0320
 7665TIP3    H249107   4.485   7.362   6.327  0.2225  0.6170 -1.5508
 7666TIP3   OH249108   1.897   3.252   2.487 -0.3833  0.2424  0.1113
 7666TIP3    H149109   1.959   3.322   2.469 -1.3835  1.1813  0.1695
 7666TIP3    H249110   1.919   3.223   2.576  1.7825 -1.4395 -0.8830
 7667TIP3   OH249111   4.362   6.156   7.307  0.7069  0.3884 -0.2177
 7667TIP3    H149112   4.273   6.123   7.298  0.5987  1.0556 -1.9937
 7667TIP3    H249113   4.356   6.224   7.373  0.1197 -0.2714  0.4254
 7668TIP3   OH249114   7.513   3.383   0.170  1.0145  0.3901  0.2959
 7668TIP3    H149115   7.556   3.315   0.222 -0.9362 -0.5550  0.7549
 7668TIP3    H249116   7.578   3.408   0.104  1.8099 -1.9026  0.1263
 7669TIP3   OH249117   5.076   5.284   6.534 -0.2877 -0.0063  0.1555
 7669TIP3    H149118   5.164   5.262   6.563 -0.4199  0.3079  0.8205
 7669TIP3    H249119   5.085   5.301   6.441  0.4848  0.6626  0.3378
 7670TIP3   OH249120   4.214   1.930   6.785  0.0369  1.0295 -0.4647
 7670TIP3    H149121   4.269   2.008   6.794  0.3076  0.7928 -0.0530
 7670TIP3    H249122   4.163   1.946   6.706  0.0555  1.6486 -0.3590
 7671TIP3   OH249123   6.320   0.884   7.507 -0.3776  0.0796 -0.0437
 7671TIP3    H149124   6.334   0.842   7.422  0.1926  0.8159 -0.3252
 7671TIP3    H249125   6.231   0.919   7.504 -0.2985  0.2451 -0.3965
 7672TIP3   OH249126   7.512   1.863   2.216 -0.8052 -0.0503 -0.2741
 7672TIP3    H149127   7.511   1.780   2.168 -0.7406 -0.4430  0.3923
 7672TIP3    H249128   7.586   1.910   2.178  1.0802 -1.5278  1.3256
 7673TIP3   OH249129   2.988   4.403   0.814  0.3830  0.0343 -0.6340
 7673TIP3    H149130   3.007   4.319   0.773 -1.6401 -0.7867 -0.0085
 7673TIP3    H249131   2.930   4.448   0.751  1.2529  0.8712 -0.8549
 7674TIP3   OH249132   7.653   7.436   7.592  0.1872  0.1935 -0.0502
 7674TIP3    H149133   7.621   7.497   7.525  0.1339 -1.3111 -1.4586
 7674TIP3    H249134   7.696   7.367   7.542  0.5596 -0.7487  1.5270
 7675TIP3   OH249135   4.220   1.708   7.072 -0.0904 -0.1618 -0.3578
 7675TIP3    H149136   4.199   1.621   7.039  0.3211 -0.5136  0.2989
 7675TIP3    H249137   4.166   1.719   7.150 -1.1395  0.7119 -1.1726
 7676TIP3   OH249138   0.555   4.259   1.321 -0.3192 -0.2770 -0.7981
 7676TIP3    H149139   0.649   4.270   1.337 -0.5762  2.1986 -0.6613
 7676TIP3    H249140   0.543   4.164   1.318  2.2549 -0.6771 -1.3116
 7677TIP3   OH249141   1.905   5.256   7.571 -0.0021 -0.0495  0.0843
 7677TIP3    H149142   1.971   5.325   7.583 -0.2506 -0.1622  2.4441
 7677TIP3    H249143   1.952   5.175   7.588 -0.2974 -0.2924 -0.2348
 7678TIP3   OH249144   4.156   6.604   7.918 -0.6002 -0.4719  0.1351
 7678TIP3    H149145   4.111   6.559   7.846  1.5587 -0.5115 -1.2910
 7678TIP3    H249146   4.218   6.662   7.875  0.6620 -0.3728  1.9826
 7679TIP3   OH249147   7.080   4.846   6.440  0.2752  0.0544 -0.2640
 7679TIP3    H149148   7.076   4.919   6.378  0.6183 -0.2581 -0.6585
 7679TIP3    H249149   6.997   4.801   6.429  0.5876 -0.3653 -0.9543
 7680TIP3   OH249150   2.628   5.853   7.122  0.1394  0.3152  0.4586
 7680TIP3    H149151   2.682   5.838   7.199  1.2781 -0.7847 -0.5096
 7680TIP3    H249152   2.690   5.880   7.054 -0.4005 -1.4432 -0.8124
 7681TIP3   OH249153   3.909   0.747   0.319  0.4413 -0.2269  0.3096
 7681TIP3    H149154   3.845   0.815   0.339  1.2099  1.5863 -2.7671
 7681TIP3    H249155   3.899   0.683   0.390 -2.4357  1.5657  1.7045
 7682TIP3   OH249156   7.569   2.550   1.415  0.0312  0.1630 -0.2232
 7682TIP3    H149157   7.492   2.546   1.359 -0.6086  0.2411  0.6464
 7682TIP3    H249158   7.537   2.583   1.499  0.7060 -1.3360  0.6581
 7683TIP3   OH249159   5.869   4.831   7.200  0.0225  0.3023  0.3375
 7683TIP3    H149160   5.924   4.757   7.177  1.4247  0.6762  2.1850
 7683TIP3    H249161   5.914   4.907   7.164 -1.4736  0.3289 -1.6614
 7684TIP3   OH249162   7.814   7.007   0.695  0.4136 -0.0837 -0.4382
 7684TIP3    H149163   7.771   7.003   0.781  0.7974 -0.5543 -0.2610
 7684TIP3    H249164   7.830   7.100   0.681 -2.2623  0.3360 -1.3387
 7685TIP3   OH249165   3.310   6.198   0.451 -0.5016  0.1956  0.3421
 7685TIP3    H149166   3.254   6.207   0.529  0.3601 -0.7101  1.0936
 7685TIP3    H249167   3.390   6.244   0.475 -0.8244  1.3119 -0.6524
 7686TIP3   OH249168   7.584   0.774   0.012 -0.1936  0.3359 -0.0763
 7686TIP3    H149169   7.575   0.681   0.034  0.2655  0.3269  0.0878
 7686TIP3    H249170   7.657   0.777  -0.049 -1.6017  0.3327 -1.8383
 7687TIP3   OH249171   3.935   4.941   0.814 -0.0918 -0.3374  0.0366
 7687TIP3    H149172   3.931   4.974   0.903 -2.6901 -1.0403  0.2713
 7687TIP3    H249173   3.974   5.012   0.763  0.5523  0.4295  1.5598
 7688TIP3   OH249174   6.194   2.562   1.082 -0.1680  0.1758 -0.4132
 7688TIP3    H149175   6.277   2.559   1.131 -1.3986  0.1947  1.7943
 7688TIP3    H249176   6.187   2.474   1.044 -0.0706 -0.5208  1.0889
 7689TIP3   OH249177   3.643   3.244   7.438  0.0476 -0.0823  0.3171
 7689TIP3    H149178   3.556   3.204   7.433  0.5449 -1.5395  2.2322
 7689TIP3    H249179   3.702   3.175   7.407  0.6169  0.4969  0.1080
 7690TIP3   OH249180   0.361   3.736   6.660 -0.0370  0.3869  0.7011
 7690TIP3    H149181   0.357   3.711   6.752  0.5193 -0.2168  0.5640
 7690TIP3    H249182   0.279   3.703   6.623 -0.7530  1.5395  1.1866
 7691TIP3   OH249183   1.468   5.241   7.632  0.2022 -0.3031  0.0156
 7691TIP3    H149184   1.394   5.192   7.597 -0.2559 -0.5112  1.2199
 7691TIP3    H249185   1.434   5.330   7.644  0.0178 -0.4936  0.9435
 7692TIP3   OH249186   0.870   4.899   6.381  0.3587 -1.0248  0.2903
 7692TIP3    H149187   0.878   4.923   6.288  2.8878 -1.3944  0.3527
 7692TIP3    H249188   0.778   4.877   6.392 -0.5931  1.5126 -1.5086
 7693TIP3   OH249189   2.929   7.316   6.479  0.2803  0.2730  0.0642
 7693TIP3    H149190   2.959   7.232   6.442 -0.0945  0.4897 -0.7622
 7693TIP3    H249191   3.009   7.365   6.496  0.4928 -0.1646  0.3263
 7694TIP3   OH249192   0.574   5.399   7.625  0.1241 -0.5140 -0.4399
 7694TIP3    H149193   0.544   5.420   7.714 -1.4530  0.4083 -1.1414
 7694TIP3    H249194   0.633   5.471   7.602 -0.6513  0.0634 -0.6700
 7695TIP3   OH249195   6.177   2.752   6.020  0.3796 -0.1831  0.0069
 7695TIP3    H149196   6.196   2.793   6.104 -0.3006 -0.0964  0.1272
 7695TIP3    H249197   6.261   2.750   5.974  0.5572  0.7252  0.2696
 7696TIP3   OH249198   5.914   5.067   7.062  0.2466  0.4480  0.3019
 7696TIP3    H149199   5.889   5.130   7.130 -2.6269  1.1088 -1.1920
 7696TIP3    H249200   5.947   5.121   6.991  0.7056 -0.0147  0.1597
 7697TIP3   OH249201   5.244   3.083   0.008 -0.5760 -0.2086  0.3842
 7697TIP3    H149202   5.282   3.170   0.026  3.5375 -1.8512  0.8694
 7697TIP3    H249203   5.226   3.084  -0.086 -1.6673  1.4657  0.5643
 7698TIP3   OH249204   3.583   6.798   1.465 -0.3699  0.3837  0.3980
 7698TIP3    H149205   3.533   6.836   1.538 -1.4633 -1.5659  0.7419
 7698TIP3    H249206   3.531   6.819   1.387 -1.9497 -1.7651  0.7692
 7699TIP3   OH249207   4.230   1.800   1.238  0.2823  0.4426 -0.1080
 7699TIP3    H149208   4.181   1.762   1.165  1.4752  1.5686 -1.5584
 7699TIP3    H249209   4.318   1.763   1.229  1.8624  4.2511 -2.3266
 7700TIP3   OH249210   7.374   1.470   7.329 -0.2830 -0.6152 -1.0024
 7700TIP3    H149211   7.376   1.506   7.418 -0.8737  3.6665 -2.5424
 7700TIP3    H249212   7.450   1.411   7.326  0.0691 -0.4917  2.1238
 7701TIP3   OH249213   0.014   4.445   5.797 -0.6685  0.0204 -0.3838
 7701TIP3    H149214   0.045   4.399   5.720 -0.9452  1.5990 -1.4738
 7701TIP3    H249215   0.056   4.531   5.794  0.6991 -0.4358  2.1881
 7702TIP3   OH249216   3.753   6.466   1.208  0.1598 -0.2641  0.1542
 7702TIP3    H149217   3.790   6.514   1.283 -1.4849 -0.8319  1.3740
 7702TIP3    H249218   3.795   6.380   1.211  1.0939  0.1487 -0.4213
 7703TIP3   OH249219   4.062   7.490   5.565  0.3486 -0.1362  0.8138
 7703TIP3    H149220   4.145   7.509   5.520 -0.1400 -0.9823 -0.4984
 7703TIP3    H249221   4.087   7.475   5.656  1.5315  0.3839  0.6016
 7704TIP3   OH249222   6.944   4.329   6.792  0.0790  0.5173  0.1799
 7704TIP3    H149223   6.897   4.308   6.711  0.5481 -0.2708  0.0980
 7704TIP3    H249224   6.949   4.424   6.793  2.0059  0.5087 -1.8674
 7705TIP3   OH249225   1.162   5.997   6.948 -0.1048 -0.0749  0.1577
 7705TIP3    H149226   1.069   6.013   6.931 -0.2324 -1.5636 -0.7321
 7705TIP3    H249227   1.172   5.902   6.940  1.4531  0.0279  0.5089
 7706TIP3   OH249228   6.212   0.959   1.102 -0.0978 -0.0001 -0.0861
 7706TIP3    H149229   6.267   0.967   1.024 -0.7404 -1.3313 -0.7082
 7706TIP3    H249230   6.269   0.984   1.174  0.6516  0.7999 -0.9343
 7707TIP3   OH249231   0.925   1.080   5.632  0.3209 -0.4047 -0.3125
 7707TIP3    H149232   0.947   1.044   5.718 -1.5107 -0.6617  0.0930
 7707TIP3    H249233   0.884   1.007   5.585 -1.0983  0.4199 -0.4145
 7708TIP3   OH249234   4.076   1.999   1.011 -0.6259  0.1008  0.0263
 7708TIP3    H149235   4.115   1.912   1.015  0.6511  0.7070  1.6004
 7708TIP3    H249236   4.125   2.044   0.941 -0.5474 -0.1039 -0.0506
 7709TIP3   OH249237   0.100   2.286   2.338  0.4806 -0.3757 -0.3871
 7709TIP3    H149238   0.008   2.297   2.362  0.7483  0.4387  0.2917
 7709TIP3    H249239   0.126   2.205   2.382  0.9284  1.0129  2.1156
 7710TIP3   OH249240   2.701   7.041   7.626 -0.3767 -0.3645  0.3944
 7710TIP3    H149241   2.668   6.952   7.616  2.2135 -1.2141 -1.6353
 7710TIP3    H249242   2.759   7.054   7.551  1.9659  1.8057  2.4002
 7711TIP3   OH249243   0.203   0.509   7.650  0.6363  0.2021 -0.1030
 7711TIP3    H149244   0.191   0.540   7.740 -1.1839  0.0682 -0.2584
 7711TIP3    H249245   0.206   0.588   7.597 -1.9814  0.2830 -0.2758
 7712TIP3   OH249246   0.530   1.744   6.445 -0.1942 -0.1553  0.2502
 7712TIP3    H149247   0.523   1.704   6.359  0.6438 -1.5271  0.7901
 7712TIP3    H249248   0.485   1.684   6.504  1.2217 -0.4278  1.1037
 7713TIP3   OH249249   6.693   3.714   0.616  0.0072  0.3108  0.0674
 7713TIP3    H149250   6.727   3.720   0.705 -0.3340 -0.8734  0.2975
 7713TIP3    H249251   6.615   3.770   0.616  0.4540  0.9354  0.2863
 7714TIP3   OH249252   5.413   5.746   7.566 -0.6916  0.5385  0.5626
 7714TIP3    H149253   5.402   5.725   7.659  0.1479 -0.6231  0.4217
 7714TIP3    H249254   5.327   5.774   7.537 -1.2110 -0.1152  1.4439
 7715TIP3   OH249255   2.772   5.167   7.025 -0.5414 -0.2914  0.5501
 7715TIP3    H149256   2.689   5.184   6.981 -0.5127 -1.2448  0.1009
 7715TIP3    H249257   2.767   5.217   7.106 -1.5278 -0.2801  0.4995
 7716TIP3   OH249258   7.832   5.360   6.168 -0.0847  0.0706 -0.3636
 7716TIP3    H149259   7.858   5.412   6.093  1.0707 -0.0396 -0.0564
 7716TIP3    H249260   7.877   5.401   6.242 -1.5247  0.4368  0.3613
 7717TIP3   OH249261   6.393   0.888   6.380 -0.4378 -0.2582  0.0841
 7717TIP3    H149262   6.436   0.917   6.300 -0.4927 -2.0294 -0.6417
 7717TIP3    H249263   6.315   0.943   6.387 -0.2060  0.2141 -0.8502
 7718TIP3   OH249264   2.859   3.846   7.184 -0.9678  0.2149  0.3292
 7718TIP3    H149265   2.778   3.799   7.163 -0.2565 -0.4080 -1.1280
 7718TIP3    H249266   2.910   3.842   7.104  0.9084 -0.2163  1.4928
 7719TIP3   OH249267   5.891   4.777   2.742 -0.0326 -0.2028  0.5198
 7719TIP3    H149268   5.824   4.718   2.777 -0.6576  0.6211  0.7336
 7719TIP3    H249269   5.958   4.718   2.707  0.6653 -1.1039  3.1181
 7720TIP3   OH249270   4.797   2.709   0.615  0.5572  0.3959 -0.1759
 7720TIP3    H149271   4.711   2.716   0.658  0.8294  1.1767  0.2635
 7720TIP3    H249272   4.853   2.667   0.681  1.2654  2.6153  0.7283
 7721TIP3   OH249273   1.757   0.170   1.815  0.0388 -0.0242  0.3676
 7721TIP3    H149274   1.678   0.177   1.762  0.6570  1.1676 -0.4417
 7721TIP3    H249275   1.794   0.259   1.816  1.6414 -0.6513  0.2762
 7722TIP3   OH249276   0.735   0.394   6.266 -0.4286 -0.4670  0.0077
 7722TIP3    H149277   0.746   0.307   6.304 -1.6410 -0.8985 -0.5714
 7722TIP3    H249278   0.776   0.389   6.180  0.8230 -0.0007  0.5627
 7723TIP3   OH249279   7.053   5.182   6.585 -0.0455 -0.4263  0.0147
 7723TIP3    H149280   7.066   5.104   6.531  0.6562 -1.4422  1.5960
 7723TIP3    H249281   6.965   5.172   6.621  0.3746 -0.9814  0.9325
 7724TIP3   OH249282   0.354   6.574   6.669  0.1669  0.4048 -0.4146
 7724TIP3    H149283   0.363   6.551   6.762 -0.5407  0.6075 -0.2908
 7724TIP3    H249284   0.436   6.618   6.648 -0.6692  2.7302  0.8407
 7725TIP3   OH249285   1.292   8.052   6.161  0.3834 -0.7563 -0.2793
 7725TIP3    H149286   1.273   8.029   6.252  0.8023 -0.7189 -0.1817
 7725TIP3    H249287   1.206   8.066   6.121  0.2367  1.5031  0.6974
 7726TIP3   OH249288   0.523   3.411   6.985  0.2495  0.1381  0.2218
 7726TIP3    H149289   0.597   3.469   6.963  1.3917 -1.2069  0.4089
 7726TIP3    H249290   0.509   3.426   7.079 -0.2191  0.9287  0.0395
 7727TIP3   OH249291   3.503   5.406   7.679 -0.1529 -0.6032 -0.3630
 7727TIP3    H149292   3.539   5.392   7.767 -0.6591 -0.0537 -0.0590
 7727TIP3    H249293   3.465   5.321   7.655  0.4981 -0.9217 -0.3007
 7728TIP3   OH249294   3.901   1.559   0.864  0.5526 -0.5918  0.2386
 7728TIP3    H149295   3.891   1.643   0.818  0.9459  0.4892  2.0163
 7728TIP3    H249296   3.870   1.494   0.802 -0.2555  0.9174 -1.0186
 7729TIP3   OH249297   0.294   7.187   6.347 -0.3617  0.5380 -0.4209
 7729TIP3    H149298   0.209   7.180   6.390 -0.1162 -0.4574 -0.0858
 7729TIP3    H249299   0.323   7.276   6.366 -1.9086  1.3696 -1.6492
 7730TIP3   OH249300   4.612   6.174   7.540  0.1929  0.2683 -0.1572
 7730TIP3    H149301   4.705   6.195   7.535 -0.0714  2.1919  1.6304
 7730TIP3    H249302   4.568   6.253   7.511 -0.8388  0.8288  2.6398
 7731TIP3   OH249303   7.903   7.400   5.911  0.1594 -0.1882 -0.1806
 7731TIP3    H149304   7.825   7.350   5.936  1.2430 -0.8976  1.9159
 7731TIP3    H249305   7.943   7.426   5.993  0.6855  2.5868 -1.1931
 7732TIP3   OH249306   0.361   0.324   6.286 -0.3718  0.1255  0.4597
 7732TIP3    H149307   0.404   0.245   6.319 -3.0387 -1.9510 -0.6367
 7732TIP3    H249308   0.294   0.291   6.226 -2.3910  3.1689  0.8256
 7733TIP3   OH249309   6.115   6.901   1.253  0.1970  0.0776 -0.5791
 7733TIP3    H149310   6.151   6.928   1.338 -1.9423  0.7406  0.1851
 7733TIP3    H249311   6.120   6.805   1.254 -1.1444 -0.0132  0.9753
 7734TIP3   OH249312   5.658   7.885   7.150 -0.4692 -0.1994 -0.1525
 7734TIP3    H149313   5.564   7.905   7.150 -0.3313  0.5575  1.3478
 7734TIP3    H249314   5.676   7.853   7.238  0.5991 -0.8226 -0.5788
 7735TIP3   OH249315   4.362   5.621   1.250 -0.0439  0.2718  0.1807
 7735TIP3    H149316   4.307   5.676   1.306  2.2710  2.8385  0.1896
 7735TIP3    H249317   4.438   5.600   1.305  1.3121  1.1085 -1.2892
 7736TIP3   OH249318   6.655   6.216   0.501  0.6294 -0.2033  0.2668
 7736TIP3    H149319   6.562   6.200   0.486  0.5805  0.5927 -0.3550
 7736TIP3    H249320   6.659   6.268   0.581  0.3762  1.3870 -0.7052
 7737TIP3   OH249321   0.132   6.664   7.050  0.1405  0.1637  0.2087
 7737TIP3    H149322   0.060   6.601   7.048 -0.0092  0.2424  1.9739
 7737TIP3    H249323   0.210   6.612   7.033 -0.2222 -0.0633 -0.8444
 7738TIP3   OH249324   0.293   5.950   5.789 -0.2323 -0.1264 -0.3043
 7738TIP3    H149325   0.301   6.030   5.841  1.1699  0.8379 -1.9016
 7738TIP3    H249326   0.216   5.964   5.734  0.2067  0.2996 -0.8232
 7739TIP3   OH249327   2.711   5.400   6.313 -0.0230  0.2972 -0.0802
 7739TIP3    H149328   2.742   5.463   6.248  0.4944  0.1930  0.0646
 7739TIP3    H249329   2.615   5.408   6.310  0.0103  0.5074 -0.6379
 7740TIP3   OH249330   2.636   3.900   0.127  0.6163 -0.1055 -0.2574
 7740TIP3    H149331   2.545   3.919   0.150  1.4547  1.7177  1.9655
 7740TIP3    H249332   2.666   3.840   0.196  1.3978  0.1807 -0.3367
 7741TIP3   OH249333   3.519   5.037   1.162 -0.6510  0.1370  0.0935
 7741TIP3    H149334   3.566   4.965   1.204  1.7542  1.6900  0.2484
 7741TIP3    H249335   3.528   5.020   1.068 -0.5675 -0.0421  0.1332
 7742TIP3   OH249336   2.017   2.681   0.009 -0.0819 -0.0230 -0.0089
 7742TIP3    H149337   2.076   2.608  -0.007  0.5371 -0.1081  2.2772
 7742TIP3    H249338   2.067   2.758  -0.019  0.4784 -0.2310  0.3963
 7743TIP3   OH249339   0.903   0.263   5.056  0.1331 -0.1507  0.3392
 7743TIP3    H149340   0.990   0.291   5.083  0.2747  0.8386 -1.0381
 7743TIP3    H249341   0.916   0.220   4.972 -0.7792  0.8450 -0.3530
 7744TIP3   OH249342   2.745   5.486   5.543 -0.7040  0.4825 -0.6166
 7744TIP3    H149343   2.779   5.560   5.595  1.1914 -1.0824  0.5087
 7744TIP3    H249344   2.715   5.423   5.609  0.4536 -0.9706 -1.4325
 7745TIP3   OH249345   7.023   6.781   0.506 -0.7377 -0.3925 -0.4466
 7745TIP3    H149346   6.980   6.711   0.555  0.5980 -0.0657  1.3241
 7745TIP3    H249347   7.040   6.744   0.420  0.6407 -2.5732  0.6647
 7746TIP3   OH249348   4.878   1.162   1.068  0.5200 -0.4530  0.3280
 7746TIP3    H149349   4.844   1.111   1.142  1.3119 -0.9116  0.3957
 7746TIP3    H249350   4.901   1.096   1.002 -0.0857 -0.0553 -0.2901
 7747TIP3   OH249351   2.270   5.344   7.042  0.0249 -0.3051 -0.3413
 7747TIP3    H149352   2.247   5.411   7.107 -0.1970 -0.6127 -0.0967
 7747TIP3    H249353   2.186   5.314   7.009  0.1132  2.1434 -3.2042
 7748TIP3   OH249354   0.597   1.001   7.423  0.1782 -0.0714  0.4251
 7748TIP3    H149355   0.627   0.911   7.406  0.2210  0.1392 -0.6632
 7748TIP3    H249356   0.667   1.041   7.473  0.2794 -0.5619  0.6840
 7749TIP3   OH249357   0.377   5.766   0.698  0.4636 -0.2882  0.0835
 7749TIP3    H149358   0.334   5.819   0.631 -0.2169  0.3867  1.0277
 7749TIP3    H249359   0.471   5.772   0.678  0.3124  0.4317 -0.4238
 7750TIP3   OH249360   5.871   0.328   1.044 -0.1279  0.2483 -0.4366
 7750TIP3    H149361   5.960   0.292   1.037  0.3418  1.2982 -0.0234
 7750TIP3    H249362   5.843   0.305   1.133  0.5192  1.6249  0.1512
 7751TIP3   OH249363   1.720   4.949   1.313  0.1663 -0.6048 -0.7570
 7751TIP3    H149364   1.811   4.925   1.293  0.5781  1.0133 -0.9392
 7751TIP3    H249365   1.698   4.896   1.389  2.2084  0.9090  1.0064
 7752TIP3   OH249366   7.927   3.090   7.280 -0.7964 -0.5412  0.4149
 7752TIP3    H149367   7.884   3.174   7.263  0.5861 -0.0137 -0.7247
 7752TIP3    H249368   7.889   3.031   7.215  0.1700 -0.0568 -0.6415
 7753TIP3   OH249369   4.758   5.275   5.583 -0.1708  0.2149  0.2869
 7753TIP3    H149370   4.835   5.331   5.571  0.0113  0.0937  0.8477
 7753TIP3    H249371   4.745   5.233   5.497  0.3748  0.2541  0.1791
 7754TIP3   OH249372   0.866   4.030   5.677 -0.1843  0.6461 -0.2615
 7754TIP3    H149373   0.898   3.944   5.704  0.6374  1.1521  0.4457
 7754TIP3    H249374   0.941   4.071   5.634 -0.7966  0.7384 -1.2926
 7755TIP3   OH249375   2.156   6.255   1.076  0.4844  0.8462  0.4092
 7755TIP3    H149376   2.111   6.331   1.115 -0.5884 -0.0234  0.9318
 7755TIP3    H249377   2.094   6.223   1.011  0.9927  0.5010  0.0985
 7756TIP3   OH249378   1.313   6.879   7.146 -0.7421 -0.1726  0.0974
 7756TIP3    H149379   1.342   6.922   7.066 -0.3340 -1.2239 -0.3368
 7756TIP3    H249380   1.236   6.929   7.174 -0.9395  0.1578 -0.9894
 7757TIP3   OH249381   7.166   5.066   7.497  0.5575  0.0676 -0.0468
 7757TIP3    H149382   7.088   5.011   7.490  1.2427 -0.7575 -1.6704
 7757TIP3    H249383   7.197   5.053   7.586 -0.2726 -0.8378  0.1221
 7758TIP3   OH249384   5.888   5.363   1.544 -0.7462 -0.5841 -0.0101
 7758TIP3    H149385   5.872   5.421   1.618  0.9258 -0.0897 -0.0143
 7758TIP3    H249386   5.852   5.410   1.468  0.4417  0.4009  0.0107
 7759TIP3   OH249387   1.916   0.585   5.808 -0.2353  0.3198 -0.0322
 7759TIP3    H149388   1.916   0.678   5.830  0.5425  0.8778 -2.1473
 7759TIP3    H249389   1.852   0.576   5.737 -1.4005 -1.0652  1.1207
 7760TIP3   OH249390   4.086   6.393   7.717 -0.5902 -0.3373 -0.3292
 7760TIP3    H149391   4.106   6.439   7.635 -2.1517  0.7007 -0.1639
 7760TIP3    H249392   4.165   6.343   7.736  1.3960  2.5684 -0.3361
 7761TIP3   OH249393   3.428   7.009   7.067 -0.2636 -0.1427 -0.8474
 7761TIP3    H149394   3.394   6.975   7.150 -0.1395 -0.9071 -1.0999
 7761TIP3    H249395   3.523   7.007   7.078 -0.2531  0.0502 -0.8961
 7762TIP3   OH249396   6.125   3.886   1.187  0.1381  0.4257 -0.5186
 7762TIP3    H149397   6.195   3.888   1.251 -0.2067 -0.7227 -0.0871
 7762TIP3    H249398   6.076   3.967   1.202  0.2978  0.3550  0.3947
 7763TIP3   OH249399   0.612   6.648   7.058  0.4439  0.2088 -0.1232
 7763TIP3    H149400   0.536   6.706   7.059  0.3054  0.0716 -1.2107
 7763TIP3    H249401   0.674   6.688   7.119 -0.2003  0.7334  0.1993
 7764TIP3   OH249402   2.394   3.831   6.702  0.5242  0.2625  0.2507
 7764TIP3    H149403   2.443   3.780   6.637  0.4759  0.1267  0.3210
 7764TIP3    H249404   2.432   3.919   6.697  0.5281  0.2507  0.0448
 7765TIP3   OH249405   7.120   2.624   1.746 -0.0579  0.2919 -0.6750
 7765TIP3    H149406   7.134   2.544   1.695 -1.9043  0.2090 -1.1132
 7765TIP3    H249407   7.104   2.593   1.835  0.4797  0.2783 -0.5751
 7766TIP3   OH249408   5.687   0.701   0.813 -0.7024 -0.1689  1.1856
 7766TIP3    H149409   5.705   0.795   0.817 -0.4022 -0.0492 -1.1776
 7766TIP3    H249410   5.773   0.660   0.810 -0.6587 -0.1440 -1.9434
 7767TIP3   OH249411   3.194   2.311   5.938  0.0051  0.1700 -0.0569
 7767TIP3    H149412   3.101   2.318   5.914  0.1080  0.9438 -0.2727
 7767TIP3    H249413   3.232   2.255   5.870 -0.2522  0.0570 -0.1109
 7768TIP3   OH249414   2.188   1.811   7.578 -0.0236 -0.0398 -0.5195
 7768TIP3    H149415   2.236   1.732   7.606 -0.3113  0.0789  0.3363
 7768TIP3    H249416   2.174   1.860   7.659 -0.2183  0.6920 -0.9909
 7769TIP3   OH249417   3.303   3.793   1.647 -0.8221 -0.4494  0.8843
 7769TIP3    H149418   3.248   3.717   1.626 -2.5861  0.4146  2.0895
 7769TIP3    H249419   3.391   3.757   1.656 -1.6765 -2.4811  1.9322
 7770TIP3   OH249420   2.255   6.556   0.502  0.2339  0.1695 -0.4169
 7770TIP3    H149421   2.228   6.522   0.417 -1.0996  0.0882  0.0153
 7770TIP3    H249422   2.199   6.510   0.565  1.7434 -0.3659  0.5889
 7771TIP3   OH249423   0.211   2.362   0.916 -0.6459  0.1258 -0.2545
 7771TIP3    H149424   0.149   2.398   0.852 -0.3566 -0.6113 -0.9738
 7771TIP3    H249425   0.159   2.349   0.995 -1.4314 -0.5529 -0.8711
 7772TIP3   OH249426   4.752   5.647   0.903 -0.3415 -0.3287  0.2833
 7772TIP3    H149427   4.823   5.593   0.869 -0.9030 -0.0638 -1.4388
 7772TIP3    H249428   4.674   5.618   0.855 -1.5060 -0.8497  2.3612
 7773TIP3   OH249429   7.059   2.524   1.084  0.2141 -0.5565  0.1334
 7773TIP3    H149430   7.128   2.532   1.150  0.6976  0.3255 -0.4675
 7773TIP3    H249431   6.979   2.545   1.131  0.1345 -2.8092  1.1543
 7774TIP3   OH249432   4.894   6.614   5.731  0.1736  0.2593  0.1624
 7774TIP3    H149433   4.948   6.589   5.656 -0.5298 -0.9022  0.0047
 7774TIP3    H249434   4.862   6.702   5.710  0.4453  0.1742 -0.6338
 7775TIP3   OH249435   5.168   1.558   6.937 -0.4211  0.6604  0.1878
 7775TIP3    H149436   5.190   1.470   6.907  0.0165  1.3678 -1.6980
 7775TIP3    H249437   5.213   1.567   7.021 -0.5631 -0.9358  0.4672
 7776TIP3   OH249438   2.728   3.434   7.749 -0.4429 -0.8087  0.6361
 7776TIP3    H149439   2.822   3.423   7.735 -0.5719 -0.7935 -0.3469
 7776TIP3    H249440   2.693   3.345   7.748 -0.3269 -0.8947  2.0380
 7777TIP3   OH249441   3.144   0.655   7.228 -0.2810  0.3348 -0.1723
 7777TIP3    H149442   3.092   0.587   7.272  0.0185 -0.3912 -0.9114
 7777TIP3    H249443   3.224   0.660   7.280  0.9370 -1.9320 -1.6775
 7778TIP3   OH249444   7.693   5.466   2.013 -0.0275  0.7526 -0.9758
 7778TIP3    H149445   7.780   5.466   2.053 -1.2005 -0.2613  1.8890
 7778TIP3    H249446   7.702   5.521   1.936  2.3300  3.6577  1.1404
 7779TIP3   OH249447   7.344   6.374   0.773 -0.0196  0.2073  0.4014
 7779TIP3    H149448   7.321   6.305   0.836  1.2685 -0.4201  0.2027
 7779TIP3    H249449   7.278   6.366   0.704 -0.2300 -0.4379  0.6683
 7780TIP3   OH249450   3.413   6.652   0.599 -0.3275 -0.6653  0.4652
 7780TIP3    H149451   3.436   6.743   0.579  1.6577 -1.2028  0.0601
 7780TIP3    H249452   3.486   6.620   0.652 -0.8378 -2.1226  0.3368
 7781TIP3   OH249453   0.043   1.187   7.485  0.1401 -0.1644  0.3081
 7781TIP3    H149454   0.000   1.249   7.426 -1.3502 -1.7409 -0.3433
 7781TIP3    H249455   0.129   1.171   7.444 -0.4902 -0.4918 -0.9440
 7782TIP3   OH249456   3.502   0.417   2.097 -0.4046  0.7164  0.1016
 7782TIP3    H149457   3.406   0.418   2.097 -0.4093  0.8352  1.0352
 7782TIP3    H249458   3.525   0.345   2.156  0.0924  0.1037 -0.8023
 7783TIP3   OH249459   7.301   4.474   5.592  0.1510 -0.2984  0.7174
 7783TIP3    H149460   7.331   4.552   5.544  1.6494 -0.0867  1.8992
 7783TIP3    H249461   7.215   4.498   5.626 -0.3036  0.0658 -0.6384
 7784TIP3   OH249462   6.014   6.883   6.983 -0.1264 -0.3216 -0.3702
 7784TIP3    H149463   6.079   6.871   6.913  0.6128 -0.0542  0.2511
 7784TIP3    H249464   5.978   6.970   6.968 -2.8746 -1.7212 -2.7452
 7785TIP3   OH249465   3.838   2.074   0.562 -0.1355  0.0153 -0.5500
 7785TIP3    H149466   3.872   2.148   0.613 -0.1523 -0.5859  0.3486
 7785TIP3    H249467   3.910   2.012   0.558 -0.7510 -0.8046  0.4663
 7786TIP3   OH249468   7.546   5.868   5.994 -0.0106  0.0726  0.1946
 7786TIP3    H149469   7.546   5.777   5.965 -2.6713  1.0784 -3.8096
 7786TIP3    H249470   7.616   5.909   5.944  0.8545  0.3759  1.6143
 7787TIP3   OH249471   0.773   5.191   6.514  0.0811 -0.0271  0.2368
 7787TIP3    H149472   0.744   5.265   6.460 -0.7150 -0.8310 -0.4831
 7787TIP3    H249473   0.866   5.207   6.528  0.1086  0.6764 -0.6239
 7788TIP3   OH249474   0.307   0.492   7.296 -0.0747  0.1349  0.4404
 7788TIP3    H149475   0.299   0.401   7.269 -0.1637  0.4035 -0.4790
 7788TIP3    H249476   0.236   0.537   7.251 -0.3243  0.5899  1.2563
 7789TIP3   OH249477   6.475   2.665   1.009 -0.3726  0.2639 -0.1753
 7789TIP3    H149478   6.393   2.661   0.959 -0.7973 -0.3297  0.5662
 7789TIP3    H249479   6.460   2.612   1.086  0.6153  0.3993  0.1305
 7790TIP3   OH249480   6.659   0.823   6.841  0.3345 -0.3669  0.0158
 7790TIP3    H149481   6.586   0.781   6.797 -1.0732  0.3508  1.5730
 7790TIP3    H249482   6.678   0.767   6.916 -0.0853  0.5827  0.8495
 7791TIP3   OH249483   2.594   0.493   7.172  0.0938  0.4122  0.5439
 7791TIP3    H149484   2.615   0.400   7.166 -0.8207  0.2562 -0.9571
 7791TIP3    H249485   2.538   0.500   7.250 -1.6024 -0.7135 -0.4951
 7792TIP3   OH249486   2.036   4.208   6.890  0.0264 -0.1399  0.2938
 7792TIP3    H149487   2.119   4.252   6.874 -0.5983  0.8545 -0.3299
 7792TIP3    H249488   1.992   4.261   6.956 -0.4611 -0.1835  0.0121
 7793TIP3   OH249489   3.955   2.715   1.288  0.5545 -0.2350 -0.3260
 7793TIP3    H149490   3.903   2.736   1.210 -3.0926 -0.0034  1.9044
 7793TIP3    H249491   3.946   2.620   1.299 -2.4427  0.1300  1.7697
 7794TIP3   OH249492   7.689   5.630   6.975 -0.0277  0.1025  0.4088
 7794TIP3    H149493   7.699   5.682   7.054 -1.8639 -0.2079  0.8889
 7794TIP3    H249494   7.620   5.673   6.926  0.0549 -0.5614 -0.3141
 7795TIP3   OH249495   5.277   7.389   6.109  0.5275  0.4634  0.0997
 7795TIP3    H149496   5.325   7.441   6.045  0.8266  1.5680  1.1829
 7795TIP3    H249497   5.186   7.417   6.100  0.5703  0.6215  0.1531
 7796TIP3   OH249498   1.930   0.810   7.719 -0.2725  0.4705 -0.4007
 7796TIP3    H149499   1.965   0.898   7.737  1.9376 -0.1626 -1.1973
 7796TIP3    H249500   1.882   0.786   7.798  0.7847  1.6301  0.6321
 7797TIP3   OH249501   4.228   3.902   1.744 -0.1950 -0.1042  0.3072
 7797TIP3    H149502   4.216   3.833   1.810  2.3003  0.1882  1.1668
 7797TIP3    H249503   4.209   3.983   1.791 -0.2985 -0.0233  0.1240
 7798TIP3   OH249504   3.838   7.972   0.091 -0.5807  0.4676 -0.2338
 7798TIP3    H149505   3.792   7.888   0.085 -1.1698  0.8234 -0.7377
 7798TIP3    H249506   3.889   7.965   0.172 -2.4807  0.5391  1.0405
 7799TIP3   OH249507   2.027   5.454   6.550 -0.0686 -0.4997  0.2667
 7799TIP3    H149508   2.064   5.468   6.638  1.1992 -0.8507 -0.1888
 7799TIP3    H249509   2.058   5.528   6.499 -1.2456 -0.0164  0.2341
 7800TIP3   OH249510   2.439   7.738   6.261  0.0515 -0.3480 -0.6382
 7800TIP3    H149511   2.390   7.803   6.210  1.5395  0.5863 -0.9438
 7800TIP3    H249512   2.524   7.733   6.217  2.3693  2.3059  3.0157
 7801TIP3   OH249513   4.773   3.591   7.884  0.2262 -0.0676 -0.1684
 7801TIP3    H149514   4.772   3.657   7.814 -1.7192  0.5892  0.4265
 7801TIP3    H249515   4.866   3.576   7.901  0.7721  2.9857  0.0817
 7802TIP3   OH249516   0.736   5.372   7.264 -0.2817 -0.4246  0.0135
 7802TIP3    H149517   0.767   5.330   7.184 -2.1062 -1.6822 -0.1100
 7802TIP3    H249518   0.695   5.453   7.235  1.8639  0.7504  0.0780
 7803TIP3   OH249519   3.016   5.235   6.854 -0.6311 -0.3477 -0.5441
 7803TIP3    H149520   2.929   5.211   6.885 -1.2748 -0.6171 -2.4296
 7803TIP3    H249521   3.010   5.329   6.835  0.0445  0.0312  0.9794
 7804TIP3   OH249522   7.968   1.495   0.478 -0.2825 -0.7182 -0.6341
 7804TIP3    H149523   8.064   1.497   0.470 -0.2926  0.0156 -0.6934
 7804TIP3    H249524   7.952   1.477   0.571 -0.0855 -0.7801 -0.6120
 7805TIP3   OH249525   1.043   1.279   1.878  0.4117  0.0779 -1.0251
 7805TIP3    H149526   1.084   1.239   1.954  3.8481  0.7258 -2.3363
 7805TIP3    H249527   1.038   1.208   1.814 -0.8179 -0.0485 -0.8072
 7806TIP3   OH249528   2.943   6.495   0.237 -0.1633  0.1355  0.3372
 7806TIP3    H149529   2.883   6.455   0.300 -0.0829 -1.4585 -0.5464
 7806TIP3    H249530   2.898   6.575   0.209 -2.0338 -1.1340 -0.4814
 7807TIP3   OH249531   4.412   6.619   7.284 -0.3816 -0.1042  0.1736
 7807TIP3    H149532   4.422   6.556   7.356  1.6834  0.7911  0.7587
 7807TIP3    H249533   4.501   6.652   7.268 -1.4601  3.8422  1.0195
 7808TIP3   OH249534   5.198   3.925   6.172  0.7268  0.3983  0.4470
 7808TIP3    H149535   5.263   3.894   6.234  1.3642 -1.5631 -1.0769
 7808TIP3    H249536   5.114   3.913   6.217  1.2533  0.6311  1.5176
 7809TIP3   OH249537   2.487   6.988   7.320  0.4689 -0.0998 -0.4427
 7809TIP3    H149538   2.581   6.975   7.332  0.6359  0.3959 -1.1544
 7809TIP3    H249539   2.463   6.928   7.250  0.3703  0.1937 -0.6631
 7810TIP3   OH249540   7.674   1.506   7.827 -0.3736  0.4717  0.3362
 7810TIP3    H149541   7.721   1.575   7.874 -1.1314  0.9261  0.4369
 7810TIP3    H249542   7.739   1.436   7.816  0.5232  1.3508 -0.1218
 7811TIP3   OH249543   0.725   0.553   7.058 -0.3562  0.2145  0.9854
 7811TIP3    H149544   0.702   0.483   7.118  0.3009  0.4705  1.5630
 7811TIP3    H249545   0.662   0.623   7.077 -1.3894 -0.4274 -0.0109
 7812TIP3   OH249546   0.159   2.768   6.259  0.4041 -0.0075  0.7003
 7812TIP3    H149547   0.143   2.674   6.249 -0.8232  0.0981  1.5164
 7812TIP3    H249548   0.234   2.774   6.318  0.2382 -0.4620  0.9557
 7813TIP3   OH249549   6.863   2.760   0.659 -0.0566  0.6720 -0.2996
 7813TIP3    H149550   6.805   2.770   0.584 -1.8308  0.3525  0.9506
 7813TIP3    H249551   6.875   2.666   0.668 -1.1491  0.5925  0.6862
 7814TIP3   OH249552   3.615   5.959   1.301 -0.7738 -0.0194  0.4072
 7814TIP3    H149553   3.629   5.955   1.395 -0.3769  2.6492  0.5434
 7814TIP3    H249554   3.684   5.903   1.264  1.3719  1.6557  1.6251
 7815TIP3   OH249555   2.625   2.857   5.852  0.1457  0.1970 -0.0370
 7815TIP3    H149556   2.574   2.851   5.771 -1.5701 -1.5847  1.0713
 7815TIP3    H249557   2.598   2.940   5.892 -1.3061 -0.3311  0.1214
 7816TIP3   OH249558   0.910   6.105   6.982 -0.2207 -0.0153 -0.0471
 7816TIP3    H149559   0.936   6.114   7.074  0.4117 -1.3017 -0.0856
 7816TIP3    H249560   0.831   6.050   6.985 -1.2569  1.3983 -0.1684
 7817TIP3   OH249561   0.212   1.605   6.421  0.7101  0.7238 -0.1191
 7817TIP3    H149562   0.178   1.686   6.459  1.4880  0.6874  0.6671
 7817TIP3    H249563   0.223   1.546   6.495 -0.1878 -0.2531 -0.7200
 7818TIP3   OH249564   7.884   0.692   5.239  0.4364 -0.3718  0.3268
 7818TIP3    H149565   7.970   0.655   5.258  0.0745 -0.8998  0.9780
 7818TIP3    H249566   7.829   0.664   5.312 -0.7201 -1.4548 -0.9096
 7819TIP3   OH249567   5.232   0.999   6.945 -0.2188  0.3232 -0.1126
 7819TIP3    H149568   5.212   0.964   7.032 -0.6799  2.4807  0.7160
 7819TIP3    H249569   5.323   0.972   6.929 -0.5982 -1.3412  0.3622
 7820TIP3   OH249570   2.467   1.329   2.174 -0.1742 -0.3908  0.2033
 7820TIP3    H149571   2.447   1.286   2.257 -0.1398 -0.1053  0.3601
 7820TIP3    H249572   2.395   1.390   2.161 -0.6999 -1.1308 -0.4666
 7821TIP3   OH249573   5.539   2.429   6.957  0.1188  0.2543 -0.2783
 7821TIP3    H149574   5.527   2.439   6.862  1.4261  0.8722 -0.4020
 7821TIP3    H249575   5.509   2.513   6.994 -0.4063  0.0073 -0.1357
 7822TIP3   OH249576   8.081   2.015   0.076 -0.2976 -0.0950 -0.2290
 7822TIP3    H149577   8.066   1.933   0.123 -0.4837  0.5893  0.9552
 7822TIP3    H249578   8.000   2.030   0.028 -0.0720 -0.8501 -0.8811
 7823TIP3   OH249579   0.345   2.531   0.270  0.1374  0.6176 -0.5267
 7823TIP3    H149580   0.432   2.492   0.270 -0.4544 -0.7861  0.0010
 7823TIP3    H249581   0.360   2.625   0.269  1.6427  0.3942 -1.2310
 7824TIP3   OH249582   2.732   4.405   7.740  0.1205 -0.5405  0.6108
 7824TIP3    H149583   2.799   4.337   7.740  1.8183  1.0206 -0.8775
 7824TIP3    H249584   2.712   4.419   7.647 -1.9595 -0.6257  0.9979
 7825TIP3   OH249585   5.403   7.338   7.018 -0.2444  0.6381  0.1985
 7825TIP3    H149586   5.362   7.260   6.981 -1.4799  1.2675  0.1833
 7825TIP3    H249587   5.455   7.374   6.947 -0.7217  0.5503 -0.1998
 7826TIP3   OH249588   5.943   7.994   7.243  0.2381  0.1370  0.8491
 7826TIP3    H149589   5.907   8.080   7.222  1.7547  0.8351  0.9626
 7826TIP3    H249590   5.878   7.954   7.301 -0.2839  1.3843  1.1522
 7827TIP3   OH249591   6.211   5.394   6.700  0.5646 -0.2377  0.2374
 7827TIP3    H149592   6.280   5.435   6.648  0.3516 -1.2285 -0.8595
 7827TIP3    H249593   6.177   5.465   6.754  0.5764  0.9097 -1.2048
 7828TIP3   OH249594   6.010   4.857   1.510 -0.2234 -0.3859  0.1335
 7828TIP3    H149595   6.036   4.853   1.418 -0.4874 -3.3249  0.0805
 7828TIP3    H249596   5.973   4.944   1.520  0.9726  0.5032 -2.1895
 7829TIP3   OH249597   4.991   2.444   7.095  0.1150 -0.3297 -0.0637
 7829TIP3    H149598   4.984   2.537   7.074 -0.4621 -0.4750 -0.5429
 7829TIP3    H249599   4.922   2.402   7.043  0.5312 -1.0578 -0.0507
 7830TIP3   OH249600   6.909   3.485   6.969 -0.3700  0.5595  0.0388
 7830TIP3    H149601   7.001   3.494   6.995  0.0412 -1.7511 -0.3854
 7830TIP3    H249602   6.860   3.496   7.050  0.2619  1.5933  0.3097
 7831TIP3   OH249603   3.463   2.897   6.975  0.1517  0.0463 -0.2438
 7831TIP3    H149604   3.433   2.807   6.992 -1.1480  0.6954  1.1256
 7831TIP3    H249605   3.440   2.913   6.884  0.2923 -0.9672 -0.4692
 7832TIP3   OH249606   6.776   5.086   1.420 -0.1430 -0.0684 -0.3507
 7832TIP3    H149607   6.811   5.075   1.509  0.7593 -0.5137 -0.7476
 7832TIP3    H249608   6.728   5.169   1.423  0.8342  0.4945  0.2612
 7833TIP3   OH249609   4.306   0.845   0.880 -0.1628 -0.5313  0.3289
 7833TIP3    H149610   4.310   0.750   0.890  0.5533 -0.5619 -0.1942
 7833TIP3    H249611   4.356   0.863   0.801 -1.1581  0.1937 -0.1644
 7834TIP3   OH249612   5.393   8.038   6.896  0.1868  0.2269  1.2206
 7834TIP3    H149613   5.440   7.958   6.873  1.7261  1.3866  0.1449
 7834TIP3    H249614   5.303   8.021   6.867  1.1441  0.0138 -2.0792
 7835TIP3   OH249615   7.323   2.657   7.764 -0.3852  0.2946 -0.1372
 7835TIP3    H149616   7.243   2.624   7.722 -0.6463 -0.3424  0.8205
 7835TIP3    H249617   7.294   2.733   7.815 -0.0912  0.9929 -0.9894
 7836TIP3   OH249618   3.423   0.945   7.144 -0.1341 -0.2385  0.4703
 7836TIP3    H149619   3.375   1.015   7.188  1.7884  1.1223  0.5272
 7836TIP3    H249620   3.433   0.976   7.054  1.7436  0.1451  0.7806
 7837TIP3   OH249621   5.733   3.747   2.215 -0.2991 -0.4558 -0.2329
 7837TIP3    H149622   5.779   3.784   2.291  0.8704  2.1722 -2.0419
 7837TIP3    H249623   5.652   3.797   2.210 -1.3581 -2.0325  0.3799
 7838TIP3   OH249624   6.827   0.142   7.744 -0.5611  0.3208 -1.1590
 7838TIP3    H149625   6.847   0.050   7.726  2.3957  0.6785 -0.2427
 7838TIP3    H249626   6.848   0.187   7.662  1.5355  0.5467 -0.5539
 7839TIP3   OH249627   2.749   3.808   7.520  0.2394  0.0665  0.1767
 7839TIP3    H149628   2.684   3.800   7.590  1.3018  0.4153  1.2288
 7839TIP3    H249629   2.754   3.720   7.482 -1.0584  0.1059 -0.1333
 7840TIP3   OH249630   2.529   2.830   6.811  0.3918  0.2090  0.2786
 7840TIP3    H149631   2.545   2.805   6.720 -1.2626 -0.3773  0.1204
 7840TIP3    H249632   2.616   2.825   6.853  0.7111 -2.5668 -0.5404
 7841TIP3   OH249633   7.902   5.402   6.690 -0.0408 -0.1747 -0.2505
 7841TIP3    H149634   7.957   5.468   6.649  0.2156 -1.2898 -1.7905
 7841TIP3    H249635   7.813   5.423   6.661  0.0496 -0.5167 -0.8004
 7842TIP3   OH249636   3.100   7.660   6.381 -0.2306 -0.2403  0.2348
 7842TIP3    H149637   3.147   7.578   6.363  0.7791  0.1781  0.8512
 7842TIP3    H249638   3.168   7.719   6.415 -1.1599  0.4806  0.8820
 7843TIP3   OH249639   7.872   1.639   7.617  1.0596  0.0674  0.0326
 7843TIP3    H149640   7.949   1.641   7.673 -0.4625  0.6597  2.2686
 7843TIP3    H249641   7.831   1.725   7.629 -0.3225 -0.4788 -0.5183
 7844TIP3   OH249642   1.623   2.447   0.442  0.3557 -0.1674  0.2714
 7844TIP3    H149643   1.591   2.526   0.485  1.4263  0.2469  0.3352
 7844TIP3    H249644   1.679   2.479   0.371  1.9072 -0.8428  1.1430
 7845TIP3   OH249645   5.077   6.266   1.802  0.3198  0.4385  0.1141
 7845TIP3    H149646   5.098   6.331   1.734  1.7413 -1.7234 -1.6440
 7845TIP3    H249647   4.982   6.262   1.803  0.2532  0.9473 -1.3692
 7846TIP3   OH249648   2.729   1.481   7.181 -0.1712 -0.1439 -0.1722
 7846TIP3    H149649   2.778   1.419   7.236 -0.1525 -0.6764 -0.7744
 7846TIP3    H249650   2.681   1.535   7.244  0.9732  0.2143  0.4194
 7847TIP3   OH249651   4.156   3.920   7.483  0.0140  0.0254 -0.2954
 7847TIP3    H149652   4.062   3.923   7.499  0.3253  0.3623  1.7674
 7847TIP3    H249653   4.193   3.879   7.562  1.4920 -1.4268 -1.6511
 7848TIP3   OH249654   4.165   2.122   0.697 -0.3719  0.3209  0.1756
 7848TIP3    H149655   4.218   2.075   0.762  0.8378  0.6897 -0.5069
 7848TIP3    H249656   4.139   2.054   0.634 -1.8738 -0.1115  1.2038
 7849TIP3   OH249657   6.020   2.769   1.455  0.1617  0.6555  0.6100
 7849TIP3    H149658   5.973   2.745   1.375  2.7686 -0.9997 -0.5692
 7849TIP3    H249659   5.971   2.726   1.525 -2.4517  2.5266  0.0757
 7850TIP3   OH249660   3.903   0.028   1.264 -0.6602 -0.2335 -0.2266
 7850TIP3    H149661   3.991   0.062   1.281  0.0618 -2.5486  1.0235
 7850TIP3    H249662   3.845   0.086   1.314  0.2913  0.4075  0.1558
 7851TIP3   OH249663   7.994   3.388   7.242 -0.4432 -0.0899 -0.2297
 7851TIP3    H149664   8.052   3.340   7.301 -0.6521 -0.2852 -0.1801
 7851TIP3    H249665   7.939   3.440   7.300 -0.2432  0.1786 -0.2814
 7852TIP3   OH249666   1.144   3.975   5.881  0.1723  0.6544  0.2010
 7852TIP3    H149667   1.208   3.912   5.913  0.6156  0.7876 -0.4260
 7852TIP3    H249668   1.095   3.928   5.814 -0.3607  0.5699  0.6375
 7853TIP3   OH249669   4.844   1.806   0.833  0.1731  0.2236 -0.1168
 7853TIP3    H149670   4.789   1.744   0.785  0.9210  0.2478 -1.0334
 7853TIP3    H249671   4.788   1.883   0.845 -0.1493  0.0727 -0.6217
 7854TIP3   OH249672   1.458   3.306   1.091  0.0649 -0.4312  0.2124
 7854TIP3    H149673   1.521   3.234   1.088 -1.0168 -1.6162  2.6918
 7854TIP3    H249674   1.461   3.335   1.182 -3.2909 -0.9348  0.6080
 7855TIP3   OH249675   1.075   1.930   5.925 -0.1858 -0.1416  0.2677
 7855TIP3    H149676   1.060   1.909   5.833 -1.1222 -0.7201  0.5400
 7855TIP3    H249677   1.075   1.845   5.970  0.1836  0.1404  0.8112
 7856TIP3   OH249678   5.083   5.893   7.096 -0.2352 -1.0135 -0.5186
 7856TIP3    H149679   5.052   5.822   7.152 -0.2164 -0.5007  0.1664
 7856TIP3    H249680   5.033   5.970   7.124  0.7700 -0.4386 -0.2242
 7857TIP3   OH249681   7.064   1.641   7.781 -0.3619 -0.0740 -0.4422
 7857TIP3    H149682   7.156   1.645   7.752  0.1600  0.7458  1.2322
 7857TIP3    H249683   7.069   1.629   7.875 -2.0228 -2.5620 -0.5822
 7858TIP3   OH249684   2.298   5.818   6.715 -0.1509  0.4069  0.1273
 7858TIP3    H149685   2.252   5.856   6.790 -0.4595 -2.8703  1.7552
 7858TIP3    H249686   2.390   5.836   6.732 -0.3123  0.7938  0.6145
 7859TIP3   OH249687   3.328   5.468   1.332 -0.2408 -0.3612  0.0866
 7859TIP3    H149688   3.409   5.479   1.283  1.1738 -2.0491  1.9040
 7859TIP3    H249689   3.355   5.469   1.424 -2.4735  0.3381  0.8014
 7860TIP3   OH249690   5.447   1.881   0.033  0.2683 -0.1873  0.0714
 7860TIP3    H149691   5.356   1.872   0.006  1.0431 -3.4558 -2.0177
 7860TIP3    H249692   5.462   1.806   0.091  1.5668  0.4411  0.5835
 7861TIP3   OH249693   3.572   0.606   7.076 -0.3398  0.5417 -0.1766
 7861TIP3    H149694   3.579   0.701   7.079 -1.1029  0.5917  0.2256
 7861TIP3    H249695   3.648   0.578   7.025 -0.0644  1.3570 -0.2256
 7862TIP3   OH249696   3.750   0.535   7.267  0.4869 -0.4830  0.0393
 7862TIP3    H149697   3.738   0.448   7.306  2.0944 -1.4886 -1.5715
 7862TIP3    H249698   3.662   0.560   7.237 -0.0812 -1.3173  0.9241
 7863TIP3   OH249699   1.557   0.639   6.148 -0.5554 -0.2978 -0.0007
 7863TIP3    H149700   1.502   0.608   6.076  1.4613 -2.2076 -0.8175
 7863TIP3    H249701   1.641   0.659   6.108  0.2312 -0.1581  1.6393
 7864TIP3   OH249702   5.746   7.516   6.919  0.0410 -0.7230 -0.6037
 7864TIP3    H149703   5.753   7.597   6.970  0.9272 -1.3497  0.3160
 7864TIP3    H249704   5.825   7.515   6.866  0.7245 -1.6282  0.3956
 7865TIP3   OH249705   7.108   5.914   2.688 -0.0959 -0.3315 -0.0522
 7865TIP3    H149706   7.149   5.922   2.602  0.8651  0.3213  0.4428
 7865TIP3    H249707   7.029   5.969   2.682  0.9995  1.3382  0.0595
 7866TIP3   OH249708   6.597   4.611   6.458  0.4465 -0.2631 -0.5071
 7866TIP3    H149709   6.615   4.547   6.389 -0.1052 -0.5578 -0.3774
 7866TIP3    H249710   6.596   4.561   6.539  0.7813  0.0345 -0.3118
 7867TIP3   OH249711   0.691   7.037   6.433 -0.0001 -0.0707  0.1296
 7867TIP3    H149712   0.674   6.944   6.416 -2.3720  0.2004  0.5867
 7867TIP3    H249713   0.645   7.083   6.362 -0.1225  0.7659  0.7327
 7868TIP3   OH249714   4.583   5.871   0.228 -0.1792 -0.4839  0.2958
 7868TIP3    H149715   4.658   5.873   0.169 -0.3396  3.1911 -0.0126
 7868TIP3    H249716   4.617   5.901   0.312 -1.0258 -0.0086  0.4867
 7869TIP3   OH249717   3.861   1.390   6.533  0.5509  0.3001  0.4985
 7869TIP3    H149718   3.883   1.462   6.592  1.0668  0.6453 -0.0971
 7869TIP3    H249719   3.936   1.384   6.474  0.3730 -0.5305  0.3518
 7870TIP3   OH249720   5.879   6.905   6.585 -0.4049  0.2627 -0.4143
 7870TIP3    H149721   5.840   6.889   6.499  0.2490  1.9130 -1.0606
 7870TIP3    H249722   5.840   6.839   6.641 -1.1457 -0.6192 -1.8899
 7871TIP3   OH249723   2.076   5.382   1.291  0.6328  0.0194  0.2720
 7871TIP3    H149724   1.999   5.426   1.327  0.2533 -0.2020 -0.2527
 7871TIP3    H249725   2.121   5.346   1.367 -1.0605 -1.9106  0.4403
 7872TIP3   OH249726   0.366   5.267   7.202 -0.0099  0.2468 -0.1037
 7872TIP3    H149727   0.286   5.254   7.253  0.2416  1.2692  0.5954
 7872TIP3    H249728   0.434   5.222   7.253 -0.0076  0.0102 -0.3134
 7873TIP3   OH249729   3.416   4.453   6.644 -0.1356 -0.5992  0.7320
 7873TIP3    H149730   3.450   4.531   6.688 -1.5244 -0.2463  1.2184
 7873TIP3    H249731   3.366   4.487   6.569  2.2525 -1.1928 -1.2714
 7874TIP3   OH249732   3.780   2.794   0.808 -0.3466  0.0862  0.2381
 7874TIP3    H149733   3.794   2.766   0.899  1.8029  2.8846  0.9105
 7874TIP3    H249734   3.685   2.800   0.800 -0.6168  1.9811  3.1569
 7875TIP3   OH249735   4.666   0.425   0.057  0.3854 -0.2546 -0.0205
 7875TIP3    H149736   4.605   0.469   0.116  0.1968 -0.0518 -0.3623
 7875TIP3    H249737   4.611   0.365   0.007  0.7705 -1.5775  1.0838
 7876TIP3   OH249738   0.844   3.828   7.522  0.0387  0.0698  0.4218
 7876TIP3    H149739   0.777   3.896   7.528 -1.4226 -1.2656 -0.1009
 7876TIP3    H249740   0.859   3.801   7.613 -0.5093  0.0264  0.5029
 7877TIP3   OH249741   3.383   4.635   6.206 -0.2264  0.5977 -0.2878
 7877TIP3    H149742   3.338   4.551   6.196  1.2930 -0.2605 -0.1388
 7877TIP3    H249743   3.323   4.698   6.166 -1.2300 -0.5994 -0.7629
 7878TIP3   OH249744   3.943   4.009   2.508  0.3196 -0.4629  0.1841
 7878TIP3    H149745   3.925   3.935   2.451 -0.7503  0.0979 -0.2263
 7878TIP3    H249746   3.921   3.978   2.596  0.8421 -0.9468  0.1494
 7879TIP3   OH249747   3.762   4.722   0.786  0.2988  0.3402 -0.9857
 7879TIP3    H149748   3.821   4.796   0.800  0.3492 -0.2435  3.0786
 7879TIP3    H249749   3.819   4.650   0.760  0.7358  0.7999 -1.3205
 7880TIP3   OH249750   6.415   2.806   0.044  0.1441 -0.4619 -0.3458
 7880TIP3    H149751   6.414   2.867   0.118  1.4105 -2.8541  1.7909
 7880TIP3    H249752   6.477   2.844  -0.017  2.9721 -0.7602  2.1218
 7881TIP3   OH249753   6.249   2.215   5.540  0.2140 -0.1908  0.1477
 7881TIP3    H149754   6.222   2.141   5.595 -0.4837  0.4645  0.7136
 7881TIP3    H249755   6.171   2.271   5.537  0.6837  0.4361 -0.4170
 7882TIP3   OH249756   3.957   3.293   7.779  0.4727  0.1089  0.2518
 7882TIP3    H149757   3.890   3.334   7.724 -0.2321  0.4991  1.3664
 7882TIP3    H249758   3.934   3.200   7.779 -1.8604  0.5502  2.8842
 7883TIP3   OH249759   5.569   1.568   6.842 -0.2366 -0.4393  0.3852
 7883TIP3    H149760   5.569   1.600   6.932  1.0849 -1.0545  0.6331
 7883TIP3    H249761   5.659   1.580   6.813 -0.9092  0.9390 -1.3202
 7884TIP3   OH249762   1.455   6.478   0.991 -0.1997 -0.0661  0.2698
 7884TIP3    H149763   1.462   6.501   1.084 -0.7445 -1.1237  0.5885
 7884TIP3    H249764   1.491   6.553   0.945  0.7293  0.1862  1.3666
 7885TIP3   OH249765   7.272   1.452   1.981  0.4193 -0.0270  0.0278
 7885TIP3    H149766   7.208   1.393   1.944  0.1153  0.5845 -0.4364
 7885TIP3    H249767   7.357   1.415   1.956  0.2169  0.3965 -1.3066
 7886TIP3   OH249768   7.028   1.587   0.572  0.3011 -0.5298 -0.1934
 7886TIP3    H149769   6.968   1.536   0.517 -0.4520  0.4699 -0.3344
 7886TIP3    H249770   7.006   1.679   0.552  1.2820 -0.1526  0.4085
 7887TIP3   OH249771   8.087   7.796   7.091  0.0953  0.6900  0.5641
 7887TIP3    H149772   8.134   7.713   7.082 -1.1309 -0.4596  3.4832
 7887TIP3    H249773   7.995   7.774   7.075 -0.2433  1.4313  1.3599
 7888TIP3   OH249774   6.599   3.567   1.275  0.3305  0.3703 -0.2635
 7888TIP3    H149775   6.546   3.622   1.219 -0.3820 -0.7270 -0.7064
 7888TIP3    H249776   6.536   3.517   1.327  0.8115 -1.8185 -1.6295
 7889TIP3   OH249777   5.291   6.078   7.585 -0.7696  0.5897  0.4458
 7889TIP3    H149778   5.214   6.026   7.565 -0.4922 -0.9137  2.9153
 7889TIP3    H249779   5.291   6.087   7.680  1.2834  1.8732  0.4020
 7890TIP3   OH249780   1.248   3.442   0.993  0.1734 -0.1326 -0.3836
 7890TIP3    H149781   1.217   3.378   0.928  0.8414 -1.4074  0.5091
 7890TIP3    H249782   1.329   3.403   1.028  1.0387  1.5844 -0.3603
 7891TIP3   OH249783   4.445   6.717   0.092 -0.0859  0.2366  0.5320
 7891TIP3    H149784   4.500   6.703   0.169 -0.4077 -0.6123  0.6277
 7891TIP3    H249785   4.360   6.680   0.116 -1.2175  2.9034  0.9579
 7892TIP3   OH249786   5.267   3.917   1.561 -0.1293  0.1008  0.5077
 7892TIP3    H149787   5.342   3.974   1.544 -0.6591  0.2284 -1.6648
 7892TIP3    H249788   5.305   3.834   1.589  0.8384  0.1416 -0.6535
 7893TIP3   OH249789   5.174   3.677   0.898 -0.7488  0.3649 -0.5364
 7893TIP3    H149790   5.113   3.741   0.862  0.4521  0.7727 -1.9166
 7893TIP3    H249791   5.190   3.615   0.827 -0.8971 -0.7475  0.3668
 7894TIP3   OH249792   0.946   7.912   0.244 -0.0462  0.3724 -0.2146
 7894TIP3    H149793   0.874   7.971   0.266 -1.5681 -1.3806 -0.1225
 7894TIP3    H249794   0.925   7.831   0.291  1.6462 -0.4075 -0.7328
 7895TIP3   OH249795   7.989   3.058   1.053  0.4431 -0.7542  0.0744
 7895TIP3    H149796   7.913   3.106   1.021  1.6352  1.4371  0.3253
 7895TIP3    H249797   7.964   3.028   1.140 -0.4017 -0.7124 -0.1506
 7896TIP3   OH249798   6.048   3.558   6.298 -0.2976 -0.2205 -0.9954
 7896TIP3    H149799   6.077   3.649   6.306 -0.9732 -0.1289  1.2840
 7896TIP3    H249800   5.976   3.561   6.235 -1.2505  1.1023  0.1037
 7897TIP3   OH249801   2.183   6.770   6.371  0.3539  0.0529  0.6726
 7897TIP3    H149802   2.118   6.838   6.352 -0.5991 -0.3873  2.1752
 7897TIP3    H249803   2.233   6.761   6.290 -1.1367  0.7703 -0.3764
 7898TIP3   OH249804   3.398   7.594   5.716 -0.1613 -0.2701 -0.8554
 7898TIP3    H149805   3.480   7.571   5.760  0.4668  0.7277 -1.4751
 7898TIP3    H249806   3.410   7.563   5.626  0.0678  1.0354 -1.2863
 7899TIP3   OH249807   5.707   5.263   6.503 -0.0229 -0.7384 -0.1375
 7899TIP3    H149808   5.792   5.235   6.536  0.1530  1.0970  1.1109
 7899TIP3    H249809   5.646   5.245   6.575  0.0039  1.3732  0.4865
 7900TIP3   OH249810   3.684   6.831   7.040 -0.1269 -0.2796  0.3142
 7900TIP3    H149811   3.776   6.808   7.054 -0.1662 -0.4969  0.2305
 7900TIP3    H249812   3.636   6.752   7.065 -0.2979 -0.1281  0.4650
 7901TIP3   OH249813   1.698   1.923   7.189 -0.2724 -0.2912  0.8967
 7901TIP3    H149814   1.736   2.001   7.227 -1.4049 -0.1377  1.7583
 7901TIP3    H249815   1.668   1.951   7.102 -0.5429  0.2028  1.1445
 7902TIP3   OH249816   0.345   6.312   6.661 -0.0813 -0.1622 -0.1171
 7902TIP3    H149817   0.321   6.404   6.669 -1.7116 -0.6622  2.0394
 7902TIP3    H249818   0.278   6.274   6.603  1.3738  0.1854 -2.1293
 7903TIP3   OH249819   5.446   0.817   5.616  0.1665 -0.0489 -0.1284
 7903TIP3    H149820   5.371   0.874   5.598  0.6054  0.9071  0.9266
 7903TIP3    H249821   5.510   0.874   5.658  0.8550 -1.2029  0.4432
 7904TIP3   OH249822   0.542   5.148   7.445  0.1734  0.0364  0.3725
 7904TIP3    H149823   0.551   5.117   7.355 -0.8755  1.2603 -0.1755
 7904TIP3    H249824   0.581   5.236   7.444 -0.1162  0.1747  1.0429
 7905TIP3   OH249825   4.447   0.145   6.268 -0.1073  0.4775  0.5225
 7905TIP3    H149826   4.364   0.171   6.309 -0.0519  0.0521  0.9023
 7905TIP3    H249827   4.462   0.213   6.202  0.1572  1.5502  1.6556
 7906TIP3   OH249828   6.752   5.895   5.999  0.1407 -0.3437 -0.4063
 7906TIP3    H149829   6.848   5.895   6.001  0.2386 -3.6065  1.2232
 7906TIP3    H249830   6.727   5.925   6.087 -0.1432 -2.5854  0.3453
 7907TIP3   OH249831   2.431   6.812   7.123 -0.1553 -0.2938 -0.7615
 7907TIP3    H149832   2.364   6.782   7.060  0.2384  0.5650 -1.6188
 7907TIP3    H249833   2.514   6.794   7.079  0.1386 -0.0662 -0.3026
 7908TIP3   OH249834   6.641   5.893   7.198  0.7223  0.2692  0.0480
 7908TIP3    H149835   6.552   5.927   7.188  1.0116  0.8722 -0.5360
 7908TIP3    H249836   6.635   5.831   7.271 -0.1156  0.5076  0.1916
 7909TIP3   OH249837   0.751   7.983   5.665  0.3472 -0.2669  0.2580
 7909TIP3    H149838   0.820   7.944   5.719  0.0115 -0.8118  0.2972
 7909TIP3    H249839   0.784   7.974   5.575  0.8959  0.6224  0.3607
 7910TIP3   OH249840   6.517   7.097   7.214  0.0120  0.1957  0.1904
 7910TIP3    H149841   6.474   7.181   7.199  1.9061  0.7059 -3.4904
 7910TIP3    H249842   6.462   7.033   7.169  1.2178  0.3323 -1.5448
 7911TIP3   OH249843   2.501   1.054   7.889 -0.1505 -0.5202  0.7865
 7911TIP3    H149844   2.507   0.992   7.816  2.8310 -0.2756  0.6806
 7911TIP3    H249845   2.440   1.014   7.950 -1.4863 -1.5198 -1.0921
 7912TIP3   OH249846   2.433   3.642   7.485  0.8374  0.2454 -0.4581
 7912TIP3    H149847   2.446   3.710   7.419 -0.3347  1.1604  0.1947
 7912TIP3    H249848   2.453   3.560   7.440  1.0666  0.9200 -1.6374
 7913TIP3   OH249849   4.861   6.205   6.523  0.7797 -0.2896 -0.2527
 7913TIP3    H149850   4.949   6.227   6.553  0.0551 -0.1404  1.9474
 7913TIP3    H249851   4.807   6.280   6.550  0.0861  0.1202 -2.4973
 7914TIP3   OH249852   7.081   4.686   7.708 -0.0665 -0.1160 -0.1707
 7914TIP3    H149853   7.171   4.653   7.711  1.0967  2.5937 -1.5499
 7914TIP3    H249854   7.066   4.724   7.794  0.2395 -0.2212 -0.0713
 7915TIP3   OH249855   2.866   7.170   6.026  0.1942 -0.1843  0.2320
 7915TIP3    H149856   2.960   7.185   6.028  0.3946 -1.2021 -0.6742
 7915TIP3    H249857   2.850   7.126   5.943 -1.0162 -0.4576  0.5805
 7916TIP3   OH249858   3.307   1.462   7.379 -0.2332 -0.1004 -0.0329
 7916TIP3    H149859   3.225   1.477   7.426  0.8815  0.5572  1.7997
 7916TIP3    H249860   3.333   1.549   7.348  0.7652  0.0619  1.1724
 7917TIP3   OH249861   4.131   4.987   7.897 -0.5219 -0.2153 -0.1856
 7917TIP3    H149862   4.078   5.055   7.856  0.1915 -0.3873 -1.4516
 7917TIP3    H249863   4.202   4.971   7.834  0.4074 -0.7636  0.9553
 7918TIP3   OH249864   0.819   2.403   6.346 -0.6253  0.4855 -0.2344
 7918TIP3    H149865   0.773   2.486   6.338  0.2470  0.9193 -0.8443
 7918TIP3    H249866   0.896   2.422   6.400 -0.9653 -0.1569  0.4977
 7919TIP3   OH249867   4.280   2.110   7.113 -0.2895 -0.2851 -0.1477
 7919TIP3    H149868   4.208   2.173   7.103 -0.2807 -0.2638 -0.0734
 7919TIP3    H249869   4.313   2.099   7.024 -0.8701 -0.8743 -0.2980
 7920TIP3   OH249870   1.645   6.212   1.631 -0.3790  0.7624  0.1382
 7920TIP3    H149871   1.557   6.223   1.596 -0.2081 -0.3141 -0.6968
 7920TIP3    H249872   1.658   6.117   1.633  0.9703  0.9163 -0.3041
 7921TIP3   OH249873   1.965   0.824   5.910 -0.2465  0.1334 -0.1363
 7921TIP3    H149874   1.982   0.917   5.927  1.5170 -0.2308  0.3693
 7921TIP3    H249875   1.878   0.808   5.947  0.4934  1.0211  2.1684
 7922TIP3   OH249876   5.259   0.548   6.654 -0.0018 -0.0851 -0.2654
 7922TIP3    H149877   5.240   0.484   6.722 -0.3922 -0.6886 -0.9360
 7922TIP3    H249878   5.256   0.632   6.700  0.5634 -0.5298  0.6310
 7923TIP3   OH249879   1.480   7.878   5.119 -0.2150 -0.3762 -0.2438
 7923TIP3    H149880   1.394   7.837   5.110  0.0738 -1.5717  1.7559
 7923TIP3    H249881   1.540   7.805   5.134  0.7872  0.5681  0.5755
 7924TIP3   OH249882   6.135   0.007   0.800  0.1848 -0.0963  0.0008
 7924TIP3    H149883   6.136   0.101   0.780  0.4756 -0.2903 -0.9311
 7924TIP3    H249884   6.200  -0.031   0.741  2.7693 -0.4142  2.8164
 7925TIP3   OH249885   3.173   7.414   0.384  0.2925  0.0864 -0.4680
 7925TIP3    H149886   3.135   7.405   0.297 -2.8049  1.7681  0.5421
 7925TIP3    H249887   3.143   7.337   0.432  0.4386  0.0673 -0.4069
 7926TIP3   OH249888   5.692   1.897   0.989  0.2734 -0.0434  0.3088
 7926TIP3    H149889   5.772   1.946   0.970 -0.5083  1.1344 -0.0571
 7926TIP3    H249890   5.631   1.926   0.922 -0.5993 -0.5980  0.8535
 7927TIP3   OH249891   4.303   4.109   1.271 -0.2815  0.4014  0.2370
 7927TIP3    H149892   4.290   4.021   1.235  1.0870  0.4102 -0.3722
 7927TIP3    H249893   4.341   4.094   1.358  3.0946  0.2878 -1.1108
 7928TIP3   OH249894   5.749   5.823   2.758 -0.0825 -0.2885 -0.1331
 7928TIP3    H149895   5.704   5.894   2.712 -0.7472  0.9921  2.2698
 7928TIP3    H249896   5.684   5.753   2.764  0.3467 -0.8714 -1.9297
 7929TIP3   OH249897   3.843   7.843   6.718 -0.4316  0.4995  0.0938
 7929TIP3    H149898   3.865   7.750   6.708  0.9041  0.9203 -1.3389
 7929TIP3    H249899   3.841   7.857   6.812 -4.6229 -1.8030  0.5725
 7930TIP3   OH249900   4.830   2.369   7.379 -0.0495 -0.1892  0.1442
 7930TIP3    H149901   4.925   2.363   7.386 -0.1408 -0.6156  1.3415
 7930TIP3    H249902   4.805   2.294   7.325  0.1806 -1.0225  1.1635
 7931TIP3   OH249903   3.780   3.119   0.103  0.3885 -0.0504 -0.1797
 7931TIP3    H149904   3.711   3.080   0.049  0.3207 -0.5825  0.2840
 7931TIP3    H249905   3.861   3.093   0.060  0.2966  1.8073 -1.5713
 7932TIP3   OH249906   2.476   4.727   6.778  0.4193 -0.3314 -0.1053
 7932TIP3    H149907   2.460   4.726   6.873  1.0729  0.2657  0.0145
 7932TIP3    H249908   2.446   4.813   6.749  2.3709  0.4093 -0.0417
 7933TIP3   OH249909   0.671   1.860   6.064  0.8494  0.1233 -0.2731
 7933TIP3    H149910   0.625   1.896   5.989 -0.1759 -1.8976 -0.6722
 7933TIP3    H249911   0.619   1.887   6.140  0.7275  0.4124 -0.4586
 7934TIP3   OH249912   7.458   0.883   1.663  0.2670 -0.0264 -0.1202
 7934TIP3    H149913   7.456   0.837   1.579  1.3823  0.4822 -0.4388
 7934TIP3    H249914   7.549   0.879   1.691 -0.0787 -0.1643  1.0658
 7935TIP3   OH249915   1.212   3.474   2.417  0.2864  0.2775 -0.4697
 7935TIP3    H149916   1.221   3.537   2.345 -2.2485 -0.0055 -1.1248
 7935TIP3    H249917   1.135   3.503   2.465 -0.6289 -1.9530 -0.4618
 7936TIP3   OH249918   0.417   1.789   0.404  0.1454  0.0807 -0.0756
 7936TIP3    H149919   0.405   1.694   0.394  0.2349 -0.0421  0.8495
 7936TIP3    H249920   0.443   1.819   0.318  1.9573 -1.0373  0.0305
 7937TIP3   OH249921   4.598   4.504   1.671  0.2665  0.2764 -0.3270
 7937TIP3    H149922   4.534   4.574   1.687 -3.1017 -2.4496 -0.7370
 7937TIP3    H249923   4.575   4.470   1.585  0.6589 -2.3856  0.5495
 7938TIP3   OH249924   5.245   7.993   6.286  0.2996 -0.2074  0.1896
 7938TIP3    H149925   5.260   7.924   6.222  0.7900  1.2719 -1.3603
 7938TIP3    H249926   5.293   7.964   6.364  1.4626 -1.0553 -0.8114
 7939TIP3   OH249927   6.255   3.036   7.175 -0.3039  0.0760  0.1656
 7939TIP3    H149928   6.183   3.096   7.155  0.0557  1.1795  1.9591
 7939TIP3    H249929   6.236   3.004   7.263  1.6756  0.8899  0.9502
 7940TIP3   OH249930   5.471   4.665   0.599  0.3699  0.3063  0.5664
 7940TIP3    H149931   5.399   4.696   0.545  2.5488  2.6485 -1.2574
 7940TIP3    H249932   5.512   4.744   0.633  1.5616 -0.9784  2.2993
 7941TIP3   OH249933   4.545   4.388   6.403  0.6518  0.0845  0.2820
 7941TIP3    H149934   4.451   4.398   6.420  0.2770  0.4198 -1.7890
 7941TIP3    H249935   4.583   4.472   6.429  0.1131  0.5748 -0.4996
 7942TIP3   OH249936   4.035   3.196   6.024 -0.0090  1.0482  0.1326
 7942TIP3    H149937   4.077   3.117   5.991  0.5905  1.9435 -1.3401
 7942TIP3    H249938   4.103   3.240   6.075 -0.9085 -0.2919  2.6564
 7943TIP3   OH249939   3.514   6.307   1.463 -0.1452 -0.6616  0.2312
 7943TIP3    H149940   3.582   6.239   1.460 -0.3275 -0.8621  0.6085
 7943TIP3    H249941   3.562   6.389   1.473  0.1129 -0.6662 -0.8159
 7944TIP3   OH249942   7.756   5.471   7.555 -0.1081  0.4760 -0.3257
 7944TIP3    H149943   7.852   5.478   7.556 -0.1152  0.8219 -1.3298
 7944TIP3    H249944   7.737   5.417   7.479 -0.5903 -2.0875  1.4712
 7945TIP3   OH249945   0.693   6.995   0.994  0.6533  0.3072  0.1859
 7945TIP3    H149946   0.734   6.996   1.080  0.9518  1.4607  0.0490
 7945TIP3    H249947   0.686   6.902   0.972  1.4964  0.0259  1.0165
 7946TIP3   OH249948   3.819   1.885   7.831  0.2375 -0.3944 -0.0074
 7946TIP3    H149949   3.805   1.827   7.905  1.4832  0.3072  0.8318
 7946TIP3    H249950   3.824   1.973   7.870  0.3968  0.0462 -0.9839
 7947TIP3   OH249951   5.500   4.013   0.752  0.2438  1.3390 -0.7673
 7947TIP3    H149952   5.548   3.944   0.798  1.3724  0.9473 -2.4406
 7947TIP3    H249953   5.408   3.985   0.756  0.7157 -0.5522 -1.8224
 7948TIP3   OH249954   2.633   4.295   6.560 -0.2700 -0.5795  0.1155
 7948TIP3    H149955   2.683   4.307   6.479  0.3620  0.7795  0.6638
 7948TIP3    H249956   2.612   4.384   6.588  0.3502 -0.9591  1.9443
 7949TIP3   OH249957   2.392   2.661   1.425  0.1001  0.1815  0.7096
 7949TIP3    H149958   2.419   2.619   1.507 -0.7100 -1.4765  0.1640
 7949TIP3    H249959   2.380   2.589   1.363 -2.4112  1.0642  0.0200
 7950TIP3   OH249960   5.880   7.989   0.798 -0.4860  0.0326 -0.3709
 7950TIP3    H149961   5.953   8.038   0.835 -0.4604 -0.2549 -0.0341
 7950TIP3    H249962   5.818   8.057   0.769  0.1639  0.2880 -1.1994
 7951TIP3   OH249963   0.212   3.277   0.568 -0.0134  0.4525  0.1212
 7951TIP3    H149964   0.252   3.246   0.649  0.3236 -0.0448 -0.2359
 7951TIP3    H249965   0.236   3.370   0.564  1.9076 -0.0287 -0.5465
 7952TIP3   OH249966   2.148   4.271   2.103  0.2213  0.7324 -0.0461
 7952TIP3    H149967   2.098   4.207   2.053  0.6646 -0.0891  0.5330
 7952TIP3    H249968   2.082   4.327   2.144 -0.1698  0.6667 -0.5867
 7953TIP3   OH249969   1.932   0.308   0.047  0.0862 -0.2845 -0.6462
 7953TIP3    H149970   1.949   0.237   0.109 -2.1566 -0.5015 -0.1624
 7953TIP3    H249971   1.984   0.286  -0.030  1.0540 -1.3212  0.2589
 7954TIP3   OH249972   6.755   5.483   1.837  0.5511  0.3546  0.0264
 7954TIP3    H149973   6.660   5.494   1.848  0.6789  1.9265 -0.1070
 7954TIP3    H249974   6.778   5.545   1.767  1.7270  0.2689  0.3130
 7955TIP3   OH249975   4.178   3.205   6.834  0.2859 -0.6769 -0.3864
 7955TIP3    H149976   4.232   3.265   6.783  0.2310 -1.1559 -1.0261
 7955TIP3    H249977   4.240   3.146   6.875  0.2599 -1.4901 -1.4561
 7956TIP3   OH249978   2.959   6.016   6.670  0.4083 -0.7660  0.5451
 7956TIP3    H149979   3.014   6.054   6.739  0.7628 -0.5717  0.1519
 7956TIP3    H249980   2.997   6.046   6.588 -0.4816 -0.3456  0.2631
 7957TIP3   OH249981   5.602   5.272   6.761  0.5860 -0.2706  0.9780
 7957TIP3    H149982   5.670   5.337   6.776 -0.7558  1.3796  0.2492
 7957TIP3    H249983   5.605   5.216   6.839  2.3299  0.1143  1.2391
 7958TIP3   OH249984   5.194   2.313   6.670  0.0710  0.3834  0.3243
 7958TIP3    H149985   5.161   2.366   6.597  0.8882  1.5300  0.7393
 7958TIP3    H249986   5.208   2.377   6.740 -1.3420 -0.8009  1.7270
 7959TIP3   OH249987   0.224   2.538   2.301  0.3575  0.8207  0.2915
 7959TIP3    H149988   0.157   2.470   2.310  0.9201  0.1470 -0.4249
 7959TIP3    H249989   0.307   2.490   2.305  0.8444  1.7436  2.0311
 7960TIP3   OH249990   5.152   4.872   7.413  0.3070 -0.0315  0.6809
 7960TIP3    H149991   5.189   4.833   7.491 -0.1599 -0.6306  0.6098
 7960TIP3    H249992   5.075   4.818   7.393  1.6732 -1.3037 -1.5011
 7961TIP3   OH249993   5.471   3.359   1.552  0.2550  0.8122 -0.3029
 7961TIP3    H149994   5.522   3.429   1.592 -1.3694  1.0915  1.4233
 7961TIP3    H249995   5.413   3.403   1.491  1.5331  0.5708 -1.7321
 7962TIP3   OH249996   2.967   5.486   6.787  0.3897  0.0637 -0.3132
 7962TIP3    H149997   2.947   5.485   6.694  0.6465  0.5758 -0.3794
 7962TIP3    H249998   3.004   5.573   6.802 -1.2486  0.6402  0.6105
 7963TIP3   OH249999   3.805   2.540   7.529  0.1462  0.1286 -0.3655
 7963TIP3    H150000   3.895   2.568   7.513  0.4869 -0.1240  0.9659
 7963TIP3    H250001   3.789   2.472   7.464  1.3252 -0.6069  0.0719
 7964TIP3   OH250002   0.649   2.243   7.622  0.2141 -0.4309  0.3540
 7964TIP3    H150003   0.581   2.269   7.685  0.8580  0.7611  0.5971
 7964TIP3    H250004   0.645   2.148   7.620 -2.0511 -0.3800 -0.3134
 7965TIP3   OH250005   1.032   4.093   1.717  0.4672  0.3559 -0.2689
 7965TIP3    H150006   1.083   4.013   1.711  2.0027  1.2008  0.9119
 7965TIP3    H250007   1.037   4.119   1.809 -2.1560  0.4744 -0.0647
 7966TIP3   OH250008   4.099   3.723   0.080  0.6416 -0.2023 -0.3578
 7966TIP3    H150009   4.021   3.728   0.135  0.8350 -3.8622  0.5010
 7966TIP3    H250010   4.070   3.678   0.001  1.2800  1.2738 -1.4787
 7967TIP3   OH250011   1.295   1.256   6.391  0.1372 -0.2062  0.1238
 7967TIP3    H150012   1.338   1.308   6.459  0.1744 -2.4523  1.9241
 7967TIP3    H250013   1.201   1.264   6.410 -0.1059  1.6697 -1.5383
 7968TIP3   OH250014   6.108   1.424   6.473  0.7030  0.2431 -0.5753
 7968TIP3    H150015   6.068   1.503   6.436 -0.7154  0.0040  0.3588
 7968TIP3    H250016   6.077   1.352   6.418 -0.5545  0.0082  0.3986
 7969TIP3   OH250017   2.267   1.551   0.000 -0.2728 -0.7063  0.0777
 7969TIP3    H150018   2.317   1.470  -0.006 -1.0354 -1.1396 -0.5104
 7969TIP3    H250019   2.333   1.620  -0.009  0.2743 -1.2597 -0.2484
 7970TIP3   OH250020   0.874   7.246   7.905  0.0453 -0.0258  0.2199
 7970TIP3    H150021   0.780   7.259   7.892  0.2627 -0.7947 -2.9461
 7970TIP3    H250022   0.910   7.335   7.911 -0.6538  0.3826 -1.1912
 7971TIP3   OH250023   1.890   0.094   0.233  0.0015 -0.3275  0.1835
 7971TIP3    H150024   1.969   0.040   0.232  0.8219  0.8417 -0.4345
 7971TIP3    H250025   1.866   0.100   0.325  2.2684  1.5383  0.7586
 7972TIP3   OH250026   4.832   5.263   6.901 -0.1254  0.2475 -0.5554
 7972TIP3    H150027   4.859   5.178   6.865  0.6711 -0.0021  0.5873
 7972TIP3    H250028   4.902   5.323   6.874  0.5304  0.0385  0.5977
 7973TIP3   OH250029   6.514   5.129   1.984 -0.0982 -0.1870  0.9930
 7973TIP3    H150030   6.482   5.039   1.992  1.9169 -0.9808  0.7353
 7973TIP3    H250031   6.549   5.134   1.895 -2.0959  1.5587  0.2408
 7974TIP3   OH250032   6.656   6.985   7.475 -0.2663  0.1460 -0.5554
 7974TIP3    H150033   6.571   7.000   7.436 -0.8733  0.0343  0.6827
 7974TIP3    H250034   6.652   7.026   7.561  0.0497 -1.9229  0.5257
 7975TIP3   OH250035   7.845   1.353   5.843 -0.5921 -0.0814 -0.3071
 7975TIP3    H150036   7.922   1.407   5.861  0.1706 -1.0840 -0.4609
 7975TIP3    H250037   7.801   1.397   5.771  1.5460 -1.1055 -2.3736
 7976TIP3   OH250038   5.272   3.126   7.369  0.4400 -1.1533 -0.5279
 7976TIP3    H150039   5.181   3.098   7.382  1.1303 -3.9763 -1.1754
 7976TIP3    H250040   5.270   3.173   7.286 -0.3476 -1.7683 -0.8724
 7977TIP3   OH250041   1.253   6.191   0.422  0.0815 -0.4754 -0.4087
 7977TIP3    H150042   1.339   6.150   0.418  0.9453  1.2607 -0.9719
 7977TIP3    H250043   1.231   6.208   0.330 -0.5413 -0.2858 -0.2277
 7978TIP3   OH250044   4.479   2.576   6.077 -0.1845 -0.6068  0.2651
 7978TIP3    H150045   4.558   2.533   6.109 -0.4935 -1.0291  0.4707
 7978TIP3    H250046   4.488   2.667   6.107  1.2662 -0.0634 -1.5972
 7979TIP3   OH250047   1.907   0.618   2.232 -0.3978 -0.0207 -0.3121
 7979TIP3    H150048   2.003   0.609   2.228 -0.4154  0.0168 -3.0067
 7979TIP3    H250049   1.875   0.535   2.196 -1.4243 -0.1593  0.8741
 7980TIP3   OH250050   0.197   7.565   6.259 -0.0225  0.0796 -0.1107
 7980TIP3    H150051   0.166   7.501   6.195  1.3682  0.2265 -0.9585
 7980TIP3    H250052   0.257   7.517   6.315 -0.9485  0.0440  0.8885
 7981TIP3   OH250053   0.504   1.999   6.265  0.1972  0.5048  0.3085
 7981TIP3    H150054   0.544   1.943   6.332  1.4260 -0.1135 -0.8763
 7981TIP3    H250055   0.568   2.068   6.251  1.0946 -0.6716 -1.8426
 7982TIP3   OH250056   5.638   8.111   6.386 -0.2298 -0.2660 -0.6414
 7982TIP3    H150057   5.582   8.122   6.462 -0.3086  1.0353 -0.8645
 7982TIP3    H250058   5.598   8.165   6.318  2.3686  2.4837 -0.1986
 7983TIP3   OH250059   4.489   4.207   1.699 -0.8976  0.2308 -0.3318
 7983TIP3    H150060   4.443   4.290   1.716  1.2053  1.2944  0.4735
 7983TIP3    H250061   4.480   4.158   1.781 -2.5392 -0.6075 -0.9590
 7984TIP3   OH250062   0.041   3.241   0.838 -0.2183 -0.1184 -0.2541
 7984TIP3    H150063   0.022   3.150   0.860  0.4093 -0.1710  0.0759
 7984TIP3    H250064   0.135   3.251   0.852 -0.4293  0.8338  0.6282
 7985TIP3   OH250065   7.900   7.259   7.080 -0.0168  0.6050 -0.2838
 7985TIP3    H150066   7.826   7.197   7.081 -0.2587  0.8185 -2.0445
 7985TIP3    H250067   7.946   7.240   6.999  1.8650  0.5271  0.7571
 7986TIP3   OH250068   3.569   2.716   1.200 -0.2625 -0.3306 -0.2374
 7986TIP3    H150069   3.498   2.726   1.136  0.4228 -0.8281 -1.1053
 7986TIP3    H250070   3.565   2.624   1.225 -0.6701 -0.0845  0.6227
 7987TIP3   OH250071   2.070   6.021   7.329  0.2894  0.2386 -0.3632
 7987TIP3    H150072   2.103   6.102   7.292  3.3131 -0.4599  0.5816
 7987TIP3    H250073   2.100   6.021   7.419 -0.8128 -1.3502  0.0555
 7988TIP3   OH250074   3.182   6.237   7.104 -0.0720  0.2261  0.0816
 7988TIP3    H150075   3.138   6.280   7.177  0.5046  1.0485 -0.0381
 7988TIP3    H250076   3.223   6.160   7.143 -2.1124 -0.9190  0.0711
 7989TIP3   OH250077   3.992   4.109   0.609 -0.5381 -0.0672  0.7987
 7989TIP3    H150078   3.998   4.114   0.704  0.1620  1.1105  0.7060
 7989TIP3    H250079   4.079   4.083   0.580 -0.9057 -1.0150  0.4981
 7990TIP3   OH250080   1.934   7.421   0.689  0.4270  0.7161  0.3970
 7990TIP3    H150081   1.949   7.396   0.780  0.6690  0.3201  0.2487
 7990TIP3    H250082   1.985   7.501   0.678  0.4553  0.7247  0.5883
 7991TIP3   OH250083   7.117   8.041   7.618 -0.1490  0.8388  0.0994
 7991TIP3    H150084   7.172   8.029   7.541  1.3149  1.6369  0.9768
 7991TIP3    H250085   7.152   8.119   7.660 -0.9006  0.4111  1.5853
 7992TIP3   OH250086   4.159   7.632   1.207 -0.5064 -0.3872  0.2529
 7992TIP3    H150087   4.110   7.698   1.157  2.1084 -0.2162 -2.4197
 7992TIP3    H250088   4.226   7.683   1.253  0.0412 -0.9625  0.0968
 7993TIP3   OH250089   2.976   2.903   6.599 -0.0619 -0.4020  0.3657
 7993TIP3    H150090   3.000   2.917   6.507  2.3009 -0.3710  0.9394
 7993TIP3    H250091   2.924   2.980   6.621  0.0003 -0.0232 -0.7269
 7994TIP3   OH250092   6.159   7.384   7.000  0.1228  0.2718 -0.2864
 7994TIP3    H150093   6.183   7.292   7.006 -0.0790  0.2139 -0.3803
 7994TIP3    H250094   6.112   7.392   6.917 -0.9333  0.2168  0.2869
 7995TIP3   OH250095   6.608   1.633   0.239  0.2365 -0.0379  0.1194
 7995TIP3    H150096   6.599   1.666   0.328 -1.5423  1.0768 -0.4258
 7995TIP3    H250097   6.588   1.708   0.183  0.9476 -0.8113 -1.2273
 7996TIP3   OH250098   7.662   4.102   0.747  0.7030  0.1301  0.0111
 7996TIP3    H150099   7.659   4.008   0.762  0.5251  0.3748  1.6995
 7996TIP3    H250100   7.607   4.116   0.670 -0.9768 -0.9152  0.9775
 7997TIP3   OH250101   5.501   2.992   0.083 -0.0843 -0.8176  0.7656
 7997TIP3    H150102   5.544   3.066   0.040  0.4982 -0.5081  1.8611
 7997TIP3    H250103   5.410   3.021   0.095  0.6176  0.6581  3.1684
 7998TIP3   OH250104   4.357   5.508   6.136  0.1347 -0.1438 -0.1846
 7998TIP3    H150105   4.298   5.538   6.206  1.5547  1.1739  0.5136
 7998TIP3    H250106   4.328   5.556   6.058 -1.0517 -1.1360 -0.3773
 7999TIP3   OH250107   7.263   3.921   7.326 -0.1868  0.8403  0.3468
 7999TIP3    H150108   7.196   3.853   7.314  1.9577 -0.9710 -2.8504
 7999TIP3    H250109   7.243   3.986   7.259 -1.5321  2.9671  2.6445
 8000TIP3   OH250110   7.869   1.132   0.343 -0.6018  0.6344 -0.6597
 8000TIP3    H150111   7.872   1.216   0.295  0.3160  0.9236 -0.1209
 8000TIP3    H250112   7.956   1.124   0.382 -0.7987 -0.4107 -0.4113
 8001TIP3   OH250113   1.102   1.593   6.898  1.1395 -0.6040 -0.3801
 8001TIP3    H150114   1.050   1.654   6.845  1.3307 -1.9493 -2.2374
 8001TIP3    H250115   1.038   1.544   6.948  0.7883 -0.6350 -0.8542
 8002TIP3   OH250116   1.696   5.094   7.466  0.0387 -0.1380 -0.0343
 8002TIP3    H150117   1.716   5.182   7.499 -2.1967 -0.0735  1.3827
 8002TIP3    H250118   1.760   5.037   7.508  0.2055  0.5708  0.6996
 8003TIP3   OH250119   4.056   6.985   1.031 -0.0285 -0.1654 -0.1342
 8003TIP3    H150120   4.101   7.037   1.098 -1.5280 -0.1640  0.9341
 8003TIP3    H250121   4.106   7.000   0.951  1.4352  0.3728  0.8336
 8004TIP3   OH250122   6.527   0.379   6.520 -0.2033  0.5053  0.0384
 8004TIP3    H150123   6.521   0.363   6.614 -0.9691  0.8786  0.0609
 8004TIP3    H250124   6.523   0.292   6.480 -0.2012  0.3674  0.3380
 8005TIP3   OH250125   1.807   7.437   1.900 -0.6956  0.6525  0.1286
 8005TIP3    H150126   1.759   7.516   1.927 -0.4647  0.6465  0.5639
 8005TIP3    H250127   1.899   7.461   1.911 -0.6062  0.5762 -0.4595
 8006TIP3   OH250128   6.232   3.840   7.690 -0.4722  0.0060  0.2587
 8006TIP3    H150129   6.178   3.825   7.767 -2.2414 -1.7862 -1.2039
 8006TIP3    H250130   6.174   3.820   7.616  1.3136  1.0295 -1.5303
 8007TIP3   OH250131   0.506   6.230   2.444 -0.9354 -0.6271 -0.4558
 8007TIP3    H150132   0.503   6.313   2.396  0.2358  0.2406  0.8754
 8007TIP3    H250133   0.438   6.239   2.511 -0.9660 -0.8421 -0.4567
 8008TIP3   OH250134   5.701   6.882   1.045  1.1052  0.4207  0.2800
 8008TIP3    H150135   5.666   6.852   1.129  2.5483 -1.1199  0.3875
 8008TIP3    H250136   5.644   6.842   0.980  1.8033 -0.9718  0.4861
 8009TIP3   OH250137   7.059   0.726   7.276  0.2209  0.1798  0.1251
 8009TIP3    H150138   7.028   0.718   7.186 -3.8906  0.5523  1.3193
 8009TIP3    H250139   7.022   0.651   7.322  1.9257  0.1862  1.6413
 8010TIP3   OH250140   1.478   5.308   6.103  0.0374 -0.1816 -0.2074
 8010TIP3    H150141   1.552   5.359   6.136 -0.2339  0.5683 -0.7341
 8010TIP3    H250142   1.518   5.230   6.065  0.5004 -0.1323  0.1743
 8011TIP3   OH250143   4.746   5.759   6.309 -0.6090  0.1542  0.2391
 8011TIP3    H150144   4.795   5.804   6.377 -0.9648 -0.9386  1.2600
 8011TIP3    H250145   4.729   5.672   6.346 -4.1323  0.7522  0.3970
 8012TIP3   OH250146   7.555   2.949   0.091 -0.0487 -0.5719 -0.1708
 8012TIP3    H150147   7.592   2.871   0.134 -0.5788 -1.7334 -1.7144
 8012TIP3    H250148   7.566   2.931  -0.003 -1.8789  0.3628 -0.6056
 8013TIP3   OH250149   7.873   5.738   6.755 -0.4818 -0.0729 -0.6671
 8013TIP3    H150150   7.918   5.820   6.777 -0.6254 -0.4195  1.0351
 8013TIP3    H250151   7.826   5.714   6.835 -3.5682  0.1321 -2.2897
 8014TIP3   OH250152   4.036   1.427   0.367 -0.3507 -0.6055 -0.7630
 8014TIP3    H150153   4.030   1.369   0.443 -0.9547 -1.5556 -1.5220
 8014TIP3    H250154   3.986   1.383   0.299 -0.3393  0.5365 -1.5358
 8015TIP3   OH250155   6.142   1.428   1.552  0.0010 -0.3637  0.1339
 8015TIP3    H150156   6.054   1.404   1.583 -0.2199  1.3874  0.9370
 8015TIP3    H250157   6.198   1.418   1.628  0.3653 -0.7344 -0.1799
 8016TIP3   OH250158   4.913   7.398   1.544 -1.0621 -0.3001 -0.1874
 8016TIP3    H150159   4.875   7.432   1.625 -1.3289 -0.5696 -0.1927
 8016TIP3    H250160   5.007   7.412   1.552 -1.1573  0.3137 -0.1373
 8017TIP3   OH250161   3.820   0.408   5.871 -0.3114  0.3967  0.5628
 8017TIP3    H150162   3.782   0.396   5.957 -1.0364 -1.0863  0.0640
 8017TIP3    H250163   3.826   0.320   5.834 -2.1378  1.1530 -1.7819
 8018TIP3   OH250164   6.786   7.200   7.130 -0.2484 -0.1308  0.0488
 8018TIP3    H150165   6.711   7.143   7.113 -1.1221  0.4970  1.5431
 8018TIP3    H250166   6.761   7.250   7.208  1.9262 -0.2606  0.9124
 8019TIP3   OH250167   0.079   2.235   7.455  0.3497 -0.9752  0.1515
 8019TIP3    H150168   0.055   2.230   7.548 -3.1698  2.7169 -0.2466
 8019TIP3    H250169   0.150   2.299   7.452 -2.0342  1.9044  0.2633
 8020TIP3   OH250170   3.478   4.302   7.361 -0.0668 -0.3927 -0.1284
 8020TIP3    H150171   3.552   4.362   7.368  0.1315 -0.6326 -0.1276
 8020TIP3    H250172   3.404   4.357   7.336 -0.0869 -0.0119  0.7299
 8021TIP3   OH250173   4.196   6.212   6.676  0.2189  0.1571 -0.3633
 8021TIP3    H150174   4.271   6.263   6.645  0.8213  0.3143  1.2490
 8021TIP3    H250175   4.128   6.277   6.692 -0.2030  0.0408 -1.6011
 8022TIP3   OH250176   1.944   3.143   7.541  0.2849 -0.1840 -0.0052
 8022TIP3    H150177   2.020   3.200   7.557 -0.3342  0.0179  2.6370
 8022TIP3    H250178   1.870   3.203   7.535 -0.1235 -0.5671  0.9758
 8023TIP3   OH250179   2.751   0.246   2.045 -0.0391 -0.2059 -0.2004
 8023TIP3    H150180   2.781   0.333   2.070  0.0538 -0.0365 -0.8677
 8023TIP3    H250181   2.679   0.262   1.983  0.2624 -0.5888 -0.6656
 8024TIP3   OH250182   5.148   6.434   7.923  0.1736  0.0196 -0.3582
 8024TIP3    H150183   5.110   6.489   7.992  0.0850 -0.5475  0.0510
 8024TIP3    H250184   5.185   6.496   7.861 -2.1747  0.6514 -1.2455
 8025TIP3   OH250185   7.303   4.470   7.719  0.6337 -0.3341 -0.1338
 8025TIP3    H150186   7.339   4.385   7.743  1.2733  0.3039  1.2887
 8025TIP3    H250187   7.343   4.532   7.781 -0.4160  0.8800 -0.6121
 8026TIP3   OH250188   5.323   2.963   6.199  0.4612 -0.3929  0.2609
 8026TIP3    H150189   5.402   2.910   6.183  0.0218 -1.7703  2.3888
 8026TIP3    H250190   5.265   2.906   6.248 -0.3569  1.8155  1.9983
 8027TIP3   OH250191   0.195   5.553   7.455  0.1546  0.3645 -0.2233
 8027TIP3    H150192   0.285   5.548   7.489 -0.2884  0.1040  0.9441
 8027TIP3    H250193   0.179   5.466   7.419  0.0772  0.1328  0.3558
 8028TIP3   OH250194   1.017   6.621   0.571 -0.8119 -0.3572 -0.0937
 8028TIP3    H150195   1.099   6.573   0.581 -1.0228 -0.3913  2.0024
 8028TIP3    H250196   0.955   6.557   0.536  0.2944  0.0038 -2.9669
 8029TIP3   OH250197   0.867   2.096   5.451 -0.3875  0.0225  0.0220
 8029TIP3    H150198   0.791   2.039   5.447  0.7282 -1.4970 -0.5615
 8029TIP3    H250199   0.929   2.051   5.509  1.3287 -0.4664 -2.0546
 8030TIP3   OH250200   1.855   3.258   1.661 -0.0353  0.3943  0.9507
 8030TIP3    H150201   1.816   3.172   1.671  0.5725  0.1053  0.8646
 8030TIP3    H250202   1.784   3.319   1.679 -0.7583 -0.1212 -0.1139
 8031TIP3   OH250203   4.491   1.456   7.149  0.8374 -0.5680 -0.1078
 8031TIP3    H150204   4.480   1.463   7.054  1.1780 -0.3580 -0.1338
 8031TIP3    H250205   4.401   1.454   7.183  0.6749  1.5114 -0.2866
 8032TIP3   OH250206   7.129   4.043   2.431  0.5431  0.0330 -0.4177
 8032TIP3    H150207   7.063   4.099   2.471  0.2396 -0.7178  0.1452
 8032TIP3    H250208   7.196   4.033   2.498  0.0808 -1.1477 -0.1187
 8033TIP3   OH250209   7.499   1.732   0.166  0.0360  0.2360 -0.1173
 8033TIP3    H150210   7.493   1.744   0.071 -1.3299  2.9350  0.2236
 8033TIP3    H250211   7.557   1.803   0.195  0.8690 -0.8766  1.0578
 8034TIP3   OH250212   4.629   4.113   7.374 -0.0683  0.0833  0.3042
 8034TIP3    H150213   4.592   4.199   7.353 -0.7085 -0.6127 -1.6399
 8034TIP3    H250214   4.574   4.079   7.445 -1.7672  0.0267 -0.9878
 8035TIP3   OH250215   7.617   6.184   7.258  0.6168 -0.4016 -0.0708
 8035TIP3    H150216   7.645   6.116   7.197  0.8736 -0.5815  0.2486
 8035TIP3    H250217   7.668   6.261   7.233  1.8924 -0.8920  0.9138
 8036TIP3   OH250218   3.882   0.570   0.536 -0.0219  0.2844  0.0232
 8036TIP3    H150219   3.806   0.612   0.575  0.9477  1.3277  0.8174
 8036TIP3    H250220   3.935   0.541   0.610  0.4066 -0.3843 -0.5238
 8037TIP3   OH250221   4.938   0.534   0.091  0.1905 -0.0446 -0.0704
 8037TIP3    H150222   4.851   0.494   0.092  0.3891 -0.7318  3.8475
 8037TIP3    H250223   4.993   0.471   0.045 -0.8072 -1.0144  0.0212
 8038TIP3   OH250224   3.032   0.096   5.390  0.4694  0.3661  0.1380
 8038TIP3    H150225   2.954   0.053   5.354  0.7307  1.5158 -1.9833
 8038TIP3    H250226   3.103   0.069   5.331  1.1900  1.3156  0.5570
 8039TIP3   OH250227   2.991   0.728   5.976 -0.1785 -0.3308 -0.4613
 8039TIP3    H150228   2.954   0.654   5.929  1.5894 -0.5770 -1.5725
 8039TIP3    H250229   2.948   0.805   5.939 -1.0185 -0.7154 -0.2885
 8040TIP3   OH250230   3.870   8.088   0.561 -0.7979 -0.3915  0.0699
 8040TIP3    H150231   3.890   8.163   0.505  0.2921 -0.5162  0.2662
 8040TIP3    H250232   3.866   8.125   0.649 -3.0097 -0.1062 -0.1002
 8041TIP3   OH250233   5.626   7.075   0.687  0.0663  0.6693 -0.3910
 8041TIP3    H150234   5.681   7.104   0.760  1.1574 -0.6443 -0.6492
 8041TIP3    H250235   5.537   7.090   0.717  0.5276  2.2950  0.2810
 8042TIP3   OH250236   6.126   4.096   5.309 -0.5198  0.1879 -0.2552
 8042TIP3    H150237   6.190   4.150   5.357  0.1541 -0.2320 -0.6688
 8042TIP3    H250238   6.049   4.152   5.300  0.3464  1.2763 -1.1193
 8043TIP3   OH250239   3.718   4.278   7.021 -0.3417 -0.6352  0.4689
 8043TIP3    H150240   3.808   4.265   7.052  0.5487  1.3218 -1.0297
 8043TIP3    H250241   3.690   4.192   6.991  1.9860 -0.9074 -1.2836
 8044TIP3   OH250242   5.487   2.808   1.934  0.0028  0.0781  0.5740
 8044TIP3    H150243   5.415   2.848   1.886  0.1738  0.8892  0.9752
 8044TIP3    H250244   5.471   2.832   2.025  2.9019  3.8182  0.3328
 8045TIP3   OH250245   6.018   4.876   0.872 -0.4638 -0.9734  0.3817
 8045TIP3    H150246   6.014   4.878   0.776  0.1302  1.7635  0.3420
 8045TIP3    H250247   6.108   4.900   0.892 -1.1494  0.7803  1.6000
 8046TIP3   OH250248   1.240   1.685   1.584 -0.0850 -0.1307 -0.0722
 8046TIP3    H150249   1.237   1.730   1.668  3.0773  1.3932 -0.6246
 8046TIP3    H250250   1.274   1.598   1.604 -0.9621 -0.3659  0.4023
 8047TIP3   OH250251   6.890   5.467   7.146  0.4795  0.1450 -0.7402
 8047TIP3    H150252   6.927   5.464   7.058 -1.3836 -0.0203 -1.5549
 8047TIP3    H250253   6.799   5.491   7.134  0.3162  0.7146  1.2091
 8048TIP3   OH250254   4.571   1.303   1.154 -0.1027  0.0404  0.3548
 8048TIP3    H150255   4.612   1.259   1.228 -1.7492  0.0839  1.3639
 8048TIP3    H250256   4.477   1.301   1.175 -0.4044  2.3210 -0.4762
 8049TIP3   OH250257   6.340   7.507   0.795  0.1163 -0.2784  0.3301
 8049TIP3    H150258   6.322   7.423   0.753  0.3796  1.2040 -3.0763
 8049TIP3    H250259   6.435   7.509   0.807  0.5798  0.6946 -2.6754
 8050TIP3   OH250260   0.031   5.692   7.234 -0.8954 -0.1680 -0.0959
 8050TIP3    H150261   0.091   5.630   7.194 -0.9364  0.4462 -1.1677
 8050TIP3    H250262   0.028   5.667   7.326  2.5414  0.9707  0.4735
 8051TIP3   OH250263   5.768   2.465   6.543 -0.2360 -1.1196 -0.1672
 8051TIP3    H150264   5.756   2.371   6.551  1.7748 -1.6062 -1.8905
 8051TIP3    H250265   5.705   2.503   6.604  1.4882 -3.6443  3.5218
 8052TIP3   OH250266   3.788   7.297   7.348 -0.6961 -0.2647  0.7483
 8052TIP3    H150267   3.722   7.346   7.299 -0.8670  0.2055  1.4439
 8052TIP3    H250268   3.808   7.222   7.292 -0.9705  0.2047  0.0107
 8053TIP3   OH250269   7.655   5.171   2.212 -0.0894 -0.3574  0.1479
 8053TIP3    H150270   7.712   5.228   2.265  1.5509 -0.8766 -0.9972
 8053TIP3    H250271   7.715   5.126   2.153 -1.7508 -0.6436 -1.3844
 8054TIP3   OH250272   0.358   2.889   7.583  0.2583  0.1190 -0.6375
 8054TIP3    H150273   0.314   2.946   7.646  0.5795 -1.0908  0.7430
 8054TIP3    H250274   0.410   2.948   7.529  1.3055  1.0849  1.3370
 8055TIP3   OH250275   7.189   1.532   5.999 -0.5421  0.0085 -0.6384
 8055TIP3    H150276   7.234   1.615   5.987 -0.7207  0.6234  2.2084
 8055TIP3    H250277   7.102   1.546   5.962 -0.7412  1.2863  0.2774
 8056TIP3   OH250278   5.840   4.794   2.219 -0.5671 -0.5423 -0.0525
 8056TIP3    H150279   5.902   4.863   2.193 -0.9656 -0.4534 -0.8042
 8056TIP3    H250280   5.856   4.782   2.312 -0.2577  0.3373  0.0250
 8057TIP3   OH250281   3.822   5.149   0.676  0.5492 -0.6616 -0.0633
 8057TIP3    H150282   3.844   5.167   0.585 -0.4317 -1.6069 -0.5208
 8057TIP3    H250283   3.861   5.221   0.726 -0.6741  1.0469 -1.4413
 8058TIP3   OH250284   6.732   7.578   1.533 -0.3598 -0.2931 -0.2110
 8058TIP3    H150285   6.768   7.655   1.490 -0.5103 -1.1653 -1.9673
 8058TIP3    H250286   6.656   7.611   1.581 -1.8085  0.3536 -2.7911
 8059TIP3   OH250287   5.318   6.632   2.158 -0.5025  0.2071  0.0639
 8059TIP3    H150288   5.234   6.631   2.203 -1.4366  1.6929 -1.4976
 8059TIP3    H250289   5.336   6.725   2.143  1.5484 -0.0555  0.5349
 8060TIP3   OH250290   3.861   3.782   1.669  0.3472 -0.2884  0.2873
 8060TIP3    H150291   3.841   3.749   1.581  0.6911 -2.0655  0.8288
 8060TIP3    H250292   3.784   3.761   1.721  1.2050 -1.8363  1.0228
 8061TIP3   OH250293   7.457   1.785   7.648  0.0318  0.1139  0.0250
 8061TIP3    H150294   7.363   1.799   7.635 -0.6912 -1.8242  2.3507
 8061TIP3    H250295   7.496   1.871   7.633 -2.2587  1.2379  0.0377
 8062TIP3   OH250296   4.941   4.456   2.540 -0.0744  0.2662  0.1205
 8062TIP3    H150297   5.032   4.439   2.561  0.0335  0.3939 -0.2233
 8062TIP3    H250298   4.899   4.370   2.541  0.1923  0.1254 -0.3679
 8063TIP3   OH250299   0.138   4.991   7.713 -0.8359  0.2704 -0.7884
 8063TIP3    H150300   0.130   5.018   7.621  0.8160  2.0430 -0.4826
 8063TIP3    H250301   0.085   4.912   7.719 -3.2206  1.5886 -2.6109
 8064TIP3   OH250302   1.136   0.217   5.417  0.2515 -0.3023 -0.5035
 8064TIP3    H150303   1.109   0.242   5.506 -0.2236 -1.4391 -0.3086
 8064TIP3    H250304   1.054   0.213   5.368  0.1424 -2.5139 -0.2355
 8065TIP3   OH250305   6.679   7.979   1.287  0.2914  0.8121  0.6260
 8065TIP3    H150306   6.710   8.062   1.251  2.7979 -0.6102 -0.7347
 8065TIP3    H250307   6.604   7.956   1.231  3.1067 -0.5474 -3.0188
 8066TIP3   OH250308   3.324   6.029   7.905 -0.4861  0.2374  0.1803
 8066TIP3    H150309   3.338   6.117   7.939 -0.4821  0.0625  0.6446
 8066TIP3    H250310   3.276   6.042   7.823  0.1048  0.7020 -0.1004
 8067TIP3   OH250311   7.286   1.213   7.014 -0.0483  0.2091 -0.2311
 8067TIP3    H150312   7.224   1.272   7.055  0.1270 -0.5535  1.1847
 8067TIP3    H250313   7.372   1.239   7.048  0.0788 -0.5537  0.0604
 8068TIP3   OH250314   3.213   5.529   7.635  0.1247  0.2386 -0.0102
 8068TIP3    H150315   3.128   5.486   7.645  0.0933  0.1940 -0.4610
 8068TIP3    H250316   3.270   5.461   7.601  0.3072  0.3052  0.1631
 8069TIP3   OH250317   1.144   7.929   7.666 -0.0692 -0.4988  1.0846
 8069TIP3    H150318   1.194   7.848   7.675 -0.3934 -0.8153  0.1692
 8069TIP3    H250319   1.187   7.976   7.595 -0.1544 -0.0742  1.3119
 8070TIP3   OH250320   4.896   1.073   0.133  0.8350  0.4657 -0.0295
 8070TIP3    H150321   4.877   1.024   0.053 -0.2510  1.3601 -0.3464
 8070TIP3    H250322   4.818   1.062   0.187  2.1417 -1.3845  1.5966
 8071TIP3   OH250323   3.654   7.694   5.570 -0.7846 -0.1369  0.4460
 8071TIP3    H150324   3.571   7.648   5.563 -1.6899  1.4174  0.3808
 8071TIP3    H250325   3.633   7.773   5.621  0.5807  0.4252  0.1810
 8072TIP3   OH250326   3.920   3.236   1.169  0.0827 -0.4307 -1.0234
 8072TIP3    H150327   3.852   3.176   1.200  0.0427  0.2272  0.2457
 8072TIP3    H250328   4.000   3.184   1.169 -0.0283 -0.6190 -0.3303
 8073TIP3   OH250329   7.630   5.387   6.626 -0.7030  0.6696 -0.2696
 8073TIP3    H150330   7.559   5.355   6.569  0.1388 -1.3289 -0.2903
 8073TIP3    H250331   7.592   5.386   6.714 -0.4130 -1.6589 -0.0903
 8074TIP3   OH250332   6.568   6.193   7.431  0.2602  0.0540 -0.3437
 8074TIP3    H150333   6.611   6.264   7.478 -0.1054 -1.3442  2.2863
 8074TIP3    H250334   6.554   6.227   7.343 -0.4859  3.4780  0.9633
 8075TIP3   OH250335   3.992   7.255   0.100  0.6945 -0.2530 -0.1128
 8075TIP3    H150336   3.925   7.188   0.087  0.0579  0.3390  0.0565
 8075TIP3    H250337   3.947   7.338   0.084  1.4290  0.1473 -0.1554
 8076TIP3   OH250338   3.703   4.033   6.888  0.0574  0.1145 -0.0721
 8076TIP3    H150339   3.773   3.991   6.938  0.6949 -0.7640 -1.6655
 8076TIP3    H250340   3.678   3.969   6.821 -1.3776  0.9246 -0.3590
 8077TIP3   OH250341   0.595   5.920   1.598  0.0082 -0.1738  0.0520
 8077TIP3    H150342   0.656   5.847   1.588  1.0203  0.7646 -0.8552
 8077TIP3    H250343   0.630   5.971   1.671 -1.3236 -1.1652  1.4285
 8078TIP3   OH250344   6.718   2.395   1.450  0.0170 -0.3175 -0.1229
 8078TIP3    H150345   6.806   2.432   1.444  0.1500 -0.5755  0.1542
 8078TIP3    H250346   6.699   2.363   1.362  0.0092  0.1653 -0.2948
 8079TIP3   OH250347   7.523   7.977   5.952  0.0287  0.5461  0.0634
 8079TIP3    H150348   7.577   8.046   5.915  1.6368 -0.6774  0.0148
 8079TIP3    H250349   7.478   7.939   5.876  2.3259 -1.1041 -0.5768
 8080TIP3   OH250350   4.240   6.568   1.245 -0.5575 -0.1386 -0.3506
 8080TIP3    H150351   4.267   6.476   1.242 -0.9872 -0.2801 -0.0102
 8080TIP3    H250352   4.227   6.586   1.338  0.5195  0.5699 -0.3072
 8081TIP3   OH250353   1.646   6.012   1.287  0.2413  0.2135 -0.0515
 8081TIP3    H150354   1.661   6.014   1.381 -1.1261  2.2685  0.1807
 8081TIP3    H250355   1.719   6.061   1.249  1.5463 -1.7716 -0.2499
 8082TIP3   OH250356   3.697   5.081   6.356 -0.1685 -0.5974 -0.5055
 8082TIP3    H150357   3.638   5.151   6.326 -0.9019 -1.7549 -1.9323
 8082TIP3    H250358   3.703   5.094   6.450 -1.1834  0.7096 -0.5804
 8083TIP3   OH250359   1.359   3.518   6.942  0.4924  0.1230  0.1244
 8083TIP3    H150360   1.453   3.526   6.922  0.4671  0.9019  0.2862
 8083TIP3    H250361   1.351   3.555   7.030 -0.2219  1.5536 -0.5278
 8084TIP3   OH250362   7.961   4.111   6.511 -0.5386 -0.0038  0.6560
 8084TIP3    H150363   8.041   4.123   6.562 -0.6486 -0.0009  0.8322
 8084TIP3    H250364   7.981   4.148   6.425 -0.3043 -0.1364  0.6540
 8085TIP3   OH250365   0.985   3.805   1.412 -0.3920 -0.0834 -0.3300
 8085TIP3    H150366   0.998   3.726   1.360 -2.2559 -1.1090  0.6784
 8085TIP3    H250367   0.913   3.851   1.369  0.0931  0.6277 -0.3967
 8086TIP3   OH250368   7.775   1.518   2.250 -0.3164  0.1910  0.3671
 8086TIP3    H150369   7.866   1.533   2.223 -0.4826 -0.9229 -0.8950
 8086TIP3    H250370   7.723   1.573   2.192 -0.5113  0.2446  0.5882
 8087TIP3   OH250371   3.353   1.340   6.615 -0.5596 -0.3203  0.0711
 8087TIP3    H150372   3.262   1.329   6.587 -0.7376  1.1539 -0.0374
 8087TIP3    H250373   3.393   1.255   6.601 -2.3539 -1.5595  1.8446
 8088TIP3   OH250374   2.271   4.493   7.268 -0.0487  0.2845 -0.4013
 8088TIP3    H150375   2.245   4.544   7.345 -0.4333  0.1031 -0.4106
 8088TIP3    H250376   2.219   4.413   7.274 -2.0232  1.3416 -2.2069
 8089TIP3   OH250377   4.683   3.965   2.445 -0.0685 -0.0075  0.0008
 8089TIP3    H150378   4.778   3.978   2.443 -0.3545  2.6367  0.4308
 8089TIP3    H250379   4.663   3.943   2.536  0.0898 -0.4211 -0.0599
 8090TIP3   OH250380   5.474   4.988   7.930  0.0208  0.1037  0.0598
 8090TIP3    H150381   5.501   5.062   7.985 -0.2739  0.1989  0.0784
 8090TIP3    H250382   5.541   4.984   7.862  0.1742  0.2313  0.2019
 8091TIP3   OH250383   5.008   2.266   0.718 -0.0215 -0.5173  0.2443
 8091TIP3    H150384   4.939   2.333   0.720  0.2876 -0.2022  0.4155
 8091TIP3    H250385   4.992   2.213   0.797 -0.1338 -0.5144  0.2245
 8092TIP3   OH250386   6.789   3.927   1.803  0.4121 -0.1001 -0.3023
 8092TIP3    H150387   6.864   3.984   1.818 -0.8776  0.9850  2.9187
 8092TIP3    H250388   6.752   3.958   1.720  1.4808  1.7346 -0.1522
 8093TIP3   OH250389   0.739   4.025   5.971  0.5247 -0.6247  0.4429
 8093TIP3    H150390   0.777   4.095   6.024 -1.4996  1.9984 -1.3239
 8093TIP3    H250391   0.797   4.018   5.895  1.4591 -1.8938  1.2291
 8094TIP3   OH250392   1.923   2.078   6.078 -0.4569 -0.7088 -0.5765
 8094TIP3    H150393   1.864   2.059   6.005  0.1528 -0.5714 -1.1159
 8094TIP3    H250394   1.890   2.159   6.116 -0.3678 -0.3942 -1.1536
 8095TIP3   OH250395   4.624   5.002   1.884 -0.1149  0.2068 -0.1790
 8095TIP3    H150396   4.641   5.092   1.858  0.3687  0.1304 -0.1382
 8095TIP3    H250397   4.529   4.995   1.887 -0.1526  0.8160  0.1587
 8096TIP3   OH250398   5.152   3.498   0.178  0.4192  0.6103  0.1670
 8096TIP3    H150399   5.165   3.574   0.122 -1.0805 -0.0604 -1.1708
 8096TIP3    H250400   5.089   3.527   0.244  0.9303  0.9195  0.5283
 8097TIP3   OH250401   1.952   3.325   6.104 -0.0696  0.4746 -0.3453
 8097TIP3    H150402   2.006   3.401   6.084  1.4194 -0.2018  0.8979
 8097TIP3    H250403   1.932   3.334   6.197 -3.1840  1.3167 -0.9719
 8098TIP3   OH250404   4.907   3.234   7.217 -0.3967 -0.4325  0.3656
 8098TIP3    H150405   4.944   3.151   7.187 -0.6388 -1.1220  1.8500
 8098TIP3    H250406   4.979   3.278   7.261 -0.0417  0.5634 -1.1569
 8099TIP3   OH250407   5.911   5.834   0.771  0.4962  0.2739  0.0769
 8099TIP3    H150408   5.996   5.856   0.810 -0.0214  0.3783  1.1753
 8099TIP3    H250409   5.861   5.797   0.843 -0.5009  0.4883 -0.4939
 8100TIP3   OH250410   0.641   5.779   0.582  0.3040  0.1043  0.5712
 8100TIP3    H150411   0.680   5.864   0.601  1.1421 -0.3504  0.9069
 8100TIP3    H250412   0.645   5.772   0.486  0.4550  0.3324  0.5605
 8101TIP3   OH250413   2.741   7.496   1.954 -0.5433 -0.6378 -0.3634
 8101TIP3    H150414   2.678   7.554   1.996  1.3876 -0.3256  2.4158
 8101TIP3    H250415   2.790   7.554   1.896  0.1448  0.2076  0.9817
 8102TIP3   OH250416   7.143   4.223   2.240 -0.5543  0.4639 -0.4655
 8102TIP3    H150417   7.156   4.160   2.311 -0.3459 -1.2651 -1.9585
 8102TIP3    H250418   7.051   4.211   2.214  0.0367 -0.8320 -2.1510
 8103TIP3   OH250419   2.503   3.117   6.860 -0.3131 -0.5442 -0.4697
 8103TIP3    H150420   2.475   3.031   6.892 -0.9848 -1.1466 -2.4924
 8103TIP3    H250421   2.422   3.168   6.854 -0.1361 -0.2957 -0.7549
 8104TIP3   OH250422   8.017   7.974   6.383 -0.4975  0.4934 -0.2725
 8104TIP3    H150423   8.032   7.916   6.458 -1.2048 -1.6496 -1.6796
 8104TIP3    H250424   7.983   8.055   6.422  1.3961  0.3767  1.8609
 8105TIP3   OH250425   5.563   3.595   6.893  0.2026  0.6938  0.4716
 8105TIP3    H150426   5.581   3.618   6.984 -0.7720  0.7956  0.6589
 8105TIP3    H250427   5.470   3.617   6.882  0.3560  0.8339 -0.5923
 8106TIP3   OH250428   6.938   1.730   6.180  0.1486 -0.0846 -0.1235
 8106TIP3    H150429   7.022   1.713   6.222  1.1431  2.0154 -1.1364
 8106TIP3    H250430   6.946   1.818   6.143 -2.2877 -0.0527 -0.7833
 8107TIP3   OH250431   6.295   2.018   6.899 -0.1099  0.2401 -0.1674
 8107TIP3    H150432   6.350   2.096   6.900 -1.1307  0.9830 -0.0743
 8107TIP3    H250433   6.304   1.981   6.987  0.3713  0.2495 -0.2103
 8108TIP3   OH250434   5.521   0.439   1.170  1.0309  0.1626  0.2421
 8108TIP3    H150435   5.505   0.507   1.235  2.1446  0.1141  0.5832
 8108TIP3    H250436   5.615   0.423   1.174  1.0728 -0.1133 -1.1065
 8109TIP3   OH250437   1.396   4.958   0.904  0.2797 -0.1132 -1.1163
 8109TIP3    H150438   1.387   4.868   0.872 -0.7889 -0.2888 -0.3791
 8109TIP3    H250439   1.480   4.959   0.949 -1.0730 -1.7052  1.7241
 8110TIP3   OH250440   5.387   7.990   5.776  0.3405  0.0495 -0.1750
 8110TIP3    H150441   5.424   7.902   5.775  0.5118  0.1155  0.1861
 8110TIP3    H250442   5.451   8.044   5.729  0.4874  0.0768  0.0529
 8111TIP3   OH250443   7.215   6.977   6.491 -0.2929  0.3931  0.5065
 8111TIP3    H150444   7.184   6.967   6.401 -0.1639  2.1596  0.2434
 8111TIP3    H250445   7.138   7.008   6.539 -0.6856 -1.6293  1.2971
 8112TIP3   OH250446   6.579   7.475   1.830  0.2082  0.5156 -0.4500
 8112TIP3    H150447   6.599   7.567   1.845 -0.5252  0.4871  0.8592
 8112TIP3    H250448   6.490   7.464   1.862  1.1297 -1.1706  1.7894
 8113TIP3   OH250449   5.477   6.101   5.781 -0.1101  0.1938  0.3746
 8113TIP3    H150450   5.395   6.152   5.782  1.0803  2.2529 -1.1351
 8113TIP3    H250451   5.539   6.156   5.734  1.4374 -2.4968 -0.9102
 8114TIP3   OH250452   1.499   0.557   7.836  0.1197  0.4160  0.3047
 8114TIP3    H150453   1.570   0.495   7.824 -1.7873 -1.8577 -0.0210
 8114TIP3    H250454   1.494   0.605   7.753  0.0918 -0.7291 -0.3736
 8115TIP3   OH250455   6.646   0.565   0.675 -0.1377 -0.2095 -0.6708
 8115TIP3    H150456   6.691   0.487   0.707 -0.3394 -0.2167 -0.4018
 8115TIP3    H250457   6.683   0.580   0.588  1.1162  0.3672 -0.0722
 8116TIP3   OH250458   1.348   2.646   0.679  0.1172  0.0882  0.7648
 8116TIP3    H150459   1.317   2.570   0.730  3.4902 -2.8868 -1.2042
 8116TIP3    H250460   1.394   2.700   0.743  2.2985 -2.3873  1.4552
 8117TIP3   OH250461   3.450   6.376   0.863 -0.5884 -0.0967  0.4186
 8117TIP3    H150462   3.542   6.398   0.876 -0.6068  0.0258  0.3487
 8117TIP3    H250463   3.434   6.302   0.921 -0.7197  0.5573  1.2466
 8118TIP3   OH250464   1.662   6.427   1.409  0.1329 -0.1711  0.2331
 8118TIP3    H150465   1.729   6.493   1.426 -1.8821  2.2997 -0.7594
 8118TIP3    H250466   1.630   6.403   1.496  0.4005  0.7117  0.5896
 8119TIP3   OH250467   1.970   5.089   1.564  0.4934 -0.1206 -0.2671
 8119TIP3    H150468   2.053   5.042   1.558  0.3217 -0.3710 -0.7250
 8119TIP3    H250469   1.919   5.058   1.489 -0.0774 -0.0937  0.1025
 8120TIP3   OH250470   4.676   4.445   2.120  0.1191 -0.1455  0.3484
 8120TIP3    H150471   4.700   4.354   2.100 -1.3747 -0.4884 -0.0126
 8120TIP3    H250472   4.588   4.438   2.156 -0.1647  1.2132 -0.0539
 8121TIP3   OH250473   2.270   0.904   7.267  0.9422 -0.1565  0.0416
 8121TIP3    H150474   2.198   0.964   7.286  0.7834 -0.7594  1.4705
 8121TIP3    H250475   2.228   0.825   7.234  0.9609 -0.3769  0.5329
 8122TIP3   OH250476   3.546   0.068   0.909  0.2144 -0.3533 -0.8019
 8122TIP3    H150477   3.478   0.025   0.858 -0.4027 -0.2192 -0.1088
 8122TIP3    H250478   3.615   0.087   0.845  0.3282 -1.9666 -1.2048
 8123TIP3   OH250479   5.938   4.103   1.284  0.3311 -0.7459 -0.0631
 8123TIP3    H150480   5.914   4.153   1.207  2.6332  0.5852 -0.0088
 8123TIP3    H250481   5.984   4.165   1.341  1.4371 -2.3874  0.9568
 8124TIP3   OH250482   0.444   1.587   7.720  0.1274  0.1002 -0.4102
 8124TIP3    H150483   0.395   1.589   7.802  1.6207  1.9118  0.5209
 8124TIP3    H250484   0.480   1.498   7.716 -0.9193 -0.3807  0.2605
 8125TIP3   OH250485   6.515   5.579   0.310  0.3519 -0.0349 -0.3354
 8125TIP3    H150486   6.537   5.502   0.361  1.0607  1.2621  1.4199
 8125TIP3    H250487   6.598   5.624   0.297  0.1572 -0.1817 -2.4783
 8126TIP3   OH250488   0.887   7.255   5.277  0.1542  0.1819 -0.4990
 8126TIP3    H150489   0.925   7.169   5.262 -0.9136 -0.3696 -0.0595
 8126TIP3    H250490   0.884   7.295   5.190  1.6627  0.2311 -0.5636
 8127TIP3   OH250491   6.694   0.049   7.474  0.1717  0.3647 -0.0071
 8127TIP3    H150492   6.704   0.132   7.522  2.3735 -1.1593  2.4355
 8127TIP3    H250493   6.781   0.032   7.438 -0.6154 -0.2366 -1.7245
 8128TIP3   OH250494   7.693   3.442   7.913  0.3893 -0.0115 -0.3811
 8128TIP3    H150495   7.686   3.524   7.863  2.4911  0.1838 -0.4184
 8128TIP3    H250496   7.728   3.379   7.850  0.5080 -0.4662  0.1388
 8129TIP3   OH250497   2.116   5.383   1.895 -0.1647  0.0759  0.1373
 8129TIP3    H150498   2.079   5.399   1.982 -0.1718 -1.5856  0.4686
 8129TIP3    H250499   2.128   5.289   1.891  0.3688  0.1823 -1.4689
 8130TIP3   OH250500   5.594   1.682   5.748  0.1004  0.2543  0.2021
 8130TIP3    H150501   5.624   1.764   5.710  1.4674 -0.0144  0.6130
 8130TIP3    H250502   5.509   1.665   5.708  0.0250  1.6181 -0.2399
 8131TIP3   OH250503   5.487   0.113   6.165  0.0168 -0.1650 -0.4604
 8131TIP3    H150504   5.529   0.114   6.079  0.4197 -0.1860 -0.2680
 8131TIP3    H250505   5.398   0.080   6.149  0.3150 -0.8350 -0.7661
 8132TIP3   OH250506   5.532   4.917   6.625 -0.3447  0.1835 -0.1500
 8132TIP3    H150507   5.613   4.933   6.672  1.7541 -3.4490 -2.0582
 8132TIP3    H250508   5.471   4.884   6.692  0.3657  1.0739  0.9676
 8133TIP3   OH250509   5.087   5.843   6.300 -0.0055  0.0491 -0.2394
 8133TIP3    H150510   5.049   5.758   6.323 -2.2022  1.3456  1.2361
 8133TIP3    H250511   5.133   5.870   6.379 -2.1571  1.6585  0.5555
 8134TIP3   OH250512   0.909   1.556   1.918 -0.0808  0.9675 -0.2750
 8134TIP3    H150513   0.815   1.541   1.929  0.0011  0.9018  0.3933
 8134TIP3    H250514   0.947   1.468   1.912  0.1229  0.9278  1.1951
 8135TIP3   OH250515   5.792   2.128   6.644  0.1059 -0.6766  0.2860
 8135TIP3    H150516   5.732   2.086   6.706 -0.2039  0.3283  0.6857
 8135TIP3    H250517   5.869   2.151   6.696  1.1394 -2.4529 -0.3336
 8136TIP3   OH250518   2.519   3.279   6.239  0.5933 -0.0371 -0.4103
 8136TIP3    H150519   2.565   3.228   6.173  2.1808  1.1287 -0.2681
 8136TIP3    H250520   2.427   3.255   6.228  0.9441 -0.6870 -2.2959
 8137TIP3   OH250521   7.228   0.180   0.258  0.5607 -0.1184 -0.3578
 8137TIP3    H150522   7.298   0.186   0.193  2.0004 -0.5241  1.1019
 8137TIP3    H250523   7.209   0.271   0.281  0.1295  0.0238 -1.2160
 8138TIP3   OH250524   4.898   7.337   1.066 -0.6212 -1.0135  0.0860
 8138TIP3    H150525   4.815   7.293   1.049 -1.6472  0.7037  0.3635
 8138TIP3    H250526   4.940   7.284   1.133 -1.9315 -1.4376  0.6077
 8139TIP3   OH250527   2.278   0.608   0.545 -0.7140 -0.3508  1.3850
 8139TIP3    H150528   2.308   0.656   0.468  1.8922 -0.8419  1.9896
 8139TIP3    H250529   2.279   0.674   0.615 -4.2828  0.4162  0.8974
 8140TIP3   OH250530   4.259   5.200   1.328 -0.5524  0.3895 -0.4174
 8140TIP3    H150531   4.210   5.282   1.324 -0.5179  0.4257 -0.1565
 8140TIP3    H250532   4.335   5.214   1.272 -0.6505  0.4638 -0.5313
 8141TIP3   OH250533   1.006   5.982   5.320 -0.5299 -0.5905  0.3230
 8141TIP3    H150534   0.972   6.071   5.331 -4.6528 -1.8898 -0.3211
 8141TIP3    H250535   1.025   5.952   5.409 -2.8779 -0.3443  0.9506
 8142TIP3   OH250536   4.461   0.059   7.110  0.0420 -0.1492  0.2898
 8142TIP3    H150537   4.394   0.029   7.048  0.8067  0.3919 -0.8330
 8142TIP3    H250538   4.422   0.136   7.152  0.6711  1.4071 -1.8220
 8143TIP3   OH250539   1.251   7.325   0.476 -0.6321  0.0011 -0.0721
 8143TIP3    H150540   1.231   7.232   0.468 -0.1956 -0.1367  0.4562
 8143TIP3    H250541   1.306   7.344   0.399 -0.8183 -0.1463 -0.2436
 8144TIP3   OH250542   2.239   5.144   0.833  0.3230 -0.4327 -0.3806
 8144TIP3    H150543   2.224   5.238   0.827  1.0552 -0.2835  0.0902
 8144TIP3    H250544   2.307   5.126   0.768 -1.4602 -1.0477 -2.2112
 8145TIP3   OH250545   7.757   7.094   0.971 -0.0437 -0.7888  0.4147
 8145TIP3    H150546   7.742   7.182   1.004 -0.6356 -0.1147 -1.5114
 8145TIP3    H250547   7.823   7.057   1.029  0.9610  1.2861  0.6658
 8146TIP3   OH250548   3.345   6.619   5.542  0.3477 -0.0937  0.3642
 8146TIP3    H150549   3.328   6.677   5.468 -1.3966  0.2495  1.0059
 8146TIP3    H250550   3.440   6.625   5.555  0.4961  0.9009 -0.9613
 8147TIP3   OH250551   4.738   3.926   2.715 -0.2691  0.0154 -0.0931
 8147TIP3    H150552   4.810   3.976   2.753  0.1396 -1.4301  1.1618
 8147TIP3    H250553   4.770   3.835   2.716 -1.7181 -0.5157 -0.4769
 8148TIP3   OH250554   5.813   4.426   0.800  0.2504  0.4549  0.1802
 8148TIP3    H150555   5.832   4.423   0.707  1.2451 -0.6064  0.4006
 8148TIP3    H250556   5.806   4.519   0.820 -1.2348  0.6751 -1.1767
 8149TIP3   OH250557   6.392   8.066   7.307  0.8659 -0.1667 -0.4575
 8149TIP3    H150558   6.426   8.072   7.396  1.1417 -1.5945 -0.4278
 8149TIP3    H250559   6.327   8.135   7.300  0.9963  0.0925  0.7880
 8150TIP3   OH250560   7.196   2.668   2.148  0.0406 -0.4676  0.0779
 8150TIP3    H150561   7.147   2.593   2.115 -0.1192 -0.4864  0.3523
 8150TIP3    H250562   7.134   2.741   2.144 -0.2363 -0.6321  1.0577
 8151TIP3   OH250563   7.323   1.142   7.338  0.2856  0.2787 -0.0084
 8151TIP3    H150564   7.393   1.130   7.274  1.1715  0.8650  0.8395
 8151TIP3    H250565   7.305   1.053   7.371 -0.6177 -0.1297 -1.4794
 8152TIP3   OH250566   1.641   1.391   0.387 -0.2130  0.2579 -0.2234
 8152TIP3    H150567   1.607   1.344   0.462 -1.4725 -1.0661 -1.5678
 8152TIP3    H250568   1.705   1.452   0.424  0.6515 -1.6850  1.7065
 8153TIP3   OH250569   4.052   4.784   0.304 -0.3199 -0.1812  0.3156
 8153TIP3    H150570   4.072   4.731   0.381 -1.9824 -1.0370  0.2219
 8153TIP3    H250571   4.096   4.739   0.232  1.2667  0.6387  0.7277
 8154TIP3   OH250572   4.773   1.206   5.896  0.1477 -0.5433 -0.0615
 8154TIP3    H150573   4.708   1.266   5.858  1.2363  1.0819  0.5563
 8154TIP3    H250574   4.720   1.139   5.941 -1.1095 -0.7646 -1.7603
 8155TIP3   OH250575   3.706   0.869   7.235  0.2496 -0.2141 -0.1553
 8155TIP3    H150576   3.635   0.912   7.282  0.4506  0.6929 -0.6614
 8155TIP3    H250577   3.762   0.834   7.304 -0.0101  0.1941  0.2663
 8156TIP3   OH250578   5.487   6.253   7.798  0.1998  0.2842  0.4957
 8156TIP3    H150579   5.401   6.217   7.821  0.6421 -0.8705  0.3862
 8156TIP3    H250580   5.526   6.277   7.882 -0.1951  0.7557  0.5499
 8157TIP3   OH250581   0.606   6.138   0.732 -0.0932  0.0238  0.2412
 8157TIP3    H150582   0.514   6.158   0.715 -1.1382 -3.4229  0.9681
 8157TIP3    H250583   0.624   6.175   0.818  0.1192  3.0120 -0.9812
 8158TIP3   OH250584   8.082   0.950   1.041 -0.8620  0.0040  0.6104
 8158TIP3    H150585   7.990   0.923   1.044 -1.1902  1.0010  4.4472
 8158TIP3    H250586   8.130   0.870   1.022 -2.4363 -0.6557 -0.8641
 8159TIP3   OH250587   6.150   3.400   0.262 -0.5340  0.8003  0.2295
 8159TIP3    H150588   6.067   3.376   0.222  0.1862  0.5324 -1.1866
 8159TIP3    H250589   6.162   3.337   0.333 -0.4555 -0.6928 -1.0481
 8160TIP3   OH250590   7.979   5.038   6.486 -0.5481  0.2218 -0.1925
 8160TIP3    H150591   7.886   5.021   6.502 -0.7584  1.0948 -0.4592
 8160TIP3    H250592   7.994   5.126   6.520  0.3477 -0.1624  0.4693
 8161TIP3   OH250593   6.791   6.394   0.308 -0.5634 -0.7275 -0.0585
 8161TIP3    H150594   6.826   6.473   0.347  2.4093 -1.6201 -0.7055
 8161TIP3    H250595   6.744   6.351   0.379  0.2309  0.2171  1.0719
 8162TIP3   OH250596   6.683   1.397   7.808 -0.6002 -0.0470  0.2901
 8162TIP3    H150597   6.672   1.303   7.797 -1.6098  0.0338  0.4820
 8162TIP3    H250598   6.766   1.417   7.765  2.2580 -1.7564  4.4207
 8163TIP3   OH250599   6.947   3.566   0.679  0.6292 -0.7372 -0.0130
 8163TIP3    H150600   7.014   3.515   0.632 -0.0391 -1.6938  0.0461
 8163TIP3    H250601   6.874   3.572   0.617  0.7538  0.2978 -0.0737
 8164TIP3   OH250602   6.138   3.389   6.480 -0.0213  0.6364 -0.4375
 8164TIP3    H150603   6.124   3.434   6.396 -1.0392  1.0241 -0.0810
 8164TIP3    H250604   6.065   3.419   6.535  1.1801  1.1687  0.9220
 8165TIP3   OH250605   2.737   5.156   0.464  0.5007  0.1295 -0.6074
 8165TIP3    H150606   2.794   5.189   0.534 -0.8423 -1.4358  1.3296
 8165TIP3    H250607   2.732   5.062   0.479 -0.1952 -0.2072 -2.5941
 8166TIP3   OH250608   7.738   0.019   5.871 -0.6018 -0.9043  0.0990
 8166TIP3    H150609   7.789  -0.056   5.838 -1.6288 -1.5598 -0.0754
 8166TIP3    H250610   7.795   0.062   5.934  0.1291 -1.6576 -0.0327
 8167TIP3   OH250611   0.890   0.998   5.888 -0.2857 -0.1415  0.2519
 8167TIP3    H150612   0.902   1.051   5.966 -1.8545  1.1419 -0.3208
 8167TIP3    H250613   0.799   0.967   5.894 -0.5249  0.1951 -1.1556
 8168TIP3   OH250614   1.339   1.548   7.210  0.2870 -0.2258 -0.5186
 8168TIP3    H150615   1.277   1.576   7.277 -0.1936 -1.8487 -0.2375
 8168TIP3    H250616   1.375   1.630   7.175 -2.2332  0.8043 -0.9467
 8169TIP3   OH250617   6.799   4.900   1.707 -0.5050  0.7421 -0.0632
 8169TIP3    H150618   6.873   4.901   1.767 -0.7008  0.6919  0.1785
 8169TIP3    H250619   6.808   4.818   1.658 -1.8774 -0.6167  1.8186
 8170TIP3   OH250620   6.808   4.907   6.050  0.0846  0.0187 -0.5179
 8170TIP3    H150621   6.786   4.975   6.113  1.2422 -2.4319  2.8093
 8170TIP3    H250622   6.904   4.910   6.045  0.0512 -0.3119 -1.6491
 8171TIP3   OH250623   5.714   0.491   7.627  0.3639  0.0319 -0.0632
 8171TIP3    H150624   5.720   0.447   7.712  0.7898 -0.0369 -0.1246
 8171TIP3    H250625   5.622   0.481   7.601  0.3336 -0.3468  0.1765
 8172TIP3   OH250626   2.242   3.226   6.755 -0.2205  0.0171 -0.0435
 8172TIP3    H150627   2.231   3.134   6.729  0.6431 -0.1660  0.1984
 8172TIP3    H250628   2.153   3.257   6.773 -0.6157 -0.4963 -1.0409
 8173TIP3   OH250629   6.939   5.735   1.351  0.2101 -0.2586 -0.2755
 8173TIP3    H150630   6.848   5.766   1.358  0.2521  0.0376 -0.9919
 8173TIP3    H250631   6.969   5.767   1.266  0.3980 -1.9074 -0.8487
 8174TIP3   OH250632   1.578   3.138   0.028  0.2067 -0.2447  0.1873
 8174TIP3    H150633   1.516   3.183   0.085 -2.4619 -3.2147 -0.0999
 8174TIP3    H250634   1.608   3.063   0.079  0.4799 -1.0470 -1.1055
 8175TIP3   OH250635   3.132   6.011   6.429  0.1714  0.4323 -0.2216
 8175TIP3    H150636   3.059   6.042   6.377 -0.1856 -0.1620 -0.0826
 8175TIP3    H250637   3.188   5.963   6.367 -0.1810 -0.1525 -0.0989
 8176TIP3   OH250638   6.014   7.613   1.772 -0.3840 -0.0002  0.3208
 8176TIP3    H150639   6.006   7.524   1.805 -1.6976 -0.1056 -0.2274
 8176TIP3    H250640   5.935   7.657   1.802 -0.7964  0.3646 -1.2181
 8177TIP3   OH250641   5.575   1.339   6.418  0.0900 -0.1018  0.2435
 8177TIP3    H150642   5.606   1.429   6.412 -0.2424 -0.0171 -0.2827
 8177TIP3    H250643   5.591   1.314   6.509  1.2878  0.0780  0.1030
 8178TIP3   OH250644   2.560   7.283   0.737 -0.0977  0.4578 -0.5162
 8178TIP3    H150645   2.506   7.296   0.659  0.0252  2.0195 -0.3766
 8178TIP3    H250646   2.498   7.282   0.810 -0.0367  1.2450 -0.4461
 8179TIP3   OH250647   5.256   2.670   0.933  0.1568  0.4839  0.3131
 8179TIP3    H150648   5.347   2.691   0.912  0.2824 -1.1185 -0.9993
 8179TIP3    H250649   5.207   2.694   0.854 -0.0379 -1.6169 -0.2705
 8180TIP3   OH250650   5.246   4.291   6.094  0.3855 -0.2849  0.2082
 8180TIP3    H150651   5.196   4.246   6.162 -0.5363 -0.6488 -0.6856
 8180TIP3    H250652   5.261   4.224   6.027  0.7822  0.2094 -0.2085
 8181TIP3   OH250653   0.935   1.498   6.570 -0.1332 -0.6804 -0.5438
 8181TIP3    H150654   0.925   1.414   6.526  1.0977 -1.5984  0.8619
 8181TIP3    H250655   0.883   1.491   6.650  1.4731 -0.8716  0.5419
 8182TIP3   OH250656   0.243   5.078   0.227 -0.0512 -0.2290  0.1230
 8182TIP3    H150657   0.215   4.987   0.212  2.6832 -0.9518 -1.4389
 8182TIP3    H250658   0.255   5.114   0.139  2.1263  0.4935  0.6553
 8183TIP3   OH250659   1.436   6.085   7.120  0.0205 -0.4660 -0.3703
 8183TIP3    H150660   1.510   6.066   7.062 -0.9208 -2.9141 -0.8512
 8183TIP3    H250661   1.359   6.068   7.067 -0.9168  0.5478  0.6101
 8184TIP3   OH250662   7.195   5.855   2.430  0.2321  1.0270 -0.5206
 8184TIP3    H150663   7.195   5.918   2.358 -1.7889  0.6442 -0.9172
 8184TIP3    H250664   7.281   5.865   2.471  0.6491  2.7191 -1.7080
 8185TIP3   OH250665   5.421   0.173   1.127  0.6865  0.1233  0.2295
 8185TIP3    H150666   5.337   0.185   1.083  0.0201  0.7322  1.5982
 8185TIP3    H250667   5.450   0.262   1.149  1.0676 -0.1442  0.8538
 8186TIP3   OH250668   5.034   4.363   1.457  0.1068  0.0464 -0.1356
 8186TIP3    H150669   5.112   4.308   1.452  0.1467  0.0677  0.2173
 8186TIP3    H250670   5.033   4.412   1.375  0.0911 -0.4510 -0.4385
 8187TIP3   OH250671   5.106   7.607   1.326 -0.0277  0.6119 -0.1080
 8187TIP3    H150672   5.019   7.595   1.288  0.0210  0.3078 -0.1214
 8187TIP3    H250673   5.130   7.521   1.360 -0.7968  1.2345  2.1824
 8188TIP3   OH250674   7.404   3.070   1.642 -0.0032  0.5688 -0.2082
 8188TIP3    H150675   7.319   3.093   1.605 -0.4752 -0.1059  0.4201
 8188TIP3    H250676   7.396   3.089   1.736  0.6794  0.8855 -0.2051
 8189TIP3   OH250677   4.802   6.025   2.130  0.2033  0.2660 -0.5092
 8189TIP3    H150678   4.761   5.939   2.144  0.2363  0.6038  1.9978
 8189TIP3    H250679   4.872   6.030   2.195  1.9532  1.1782 -2.3506
 8190TIP3   OH250680   3.020   3.559   7.544  0.1945 -0.3887  0.4504
 8190TIP3    H150681   2.983   3.480   7.581 -1.0836  0.0316  0.1219
 8190TIP3    H250682   2.980   3.566   7.457  0.3783  0.5374  0.4262
 8191TIP3   OH250683   6.783   1.101   0.108 -0.6840  0.1249  0.3106
 8191TIP3    H150684   6.836   1.115   0.030  1.0909  0.3144  1.4943
 8191TIP3    H250685   6.768   1.189   0.143 -2.1084  0.1059 -0.1770
 8192TIP3   OH250686   7.089   0.364   6.365 -0.1898 -0.2225 -0.1986
 8192TIP3    H150687   7.018   0.311   6.402 -0.8558  1.3188  0.8100
 8192TIP3    H250688   7.156   0.366   6.433 -0.5457  0.9277  0.1398
 8193TIP3   OH250689   7.160   1.414   7.174  0.3133 -0.1833 -0.4016
 8193TIP3    H150690   7.220   1.435   7.246 -0.9326 -1.3718  1.0580
 8193TIP3    H250691   7.084   1.471   7.189  0.5659  0.4961 -1.5711
 8194TIP3   OH250692   6.026   5.032   2.771  0.3365 -0.5389  0.2749
 8194TIP3    H150693   5.976   4.956   2.800 -1.0731  0.3936  0.3737
 8194TIP3    H250694   5.974   5.108   2.797  1.8454  0.4996  0.4446
 8195TIP3   OH250695   7.794   2.389   0.029  0.0603  0.1288 -0.0406
 8195TIP3    H150696   7.804   2.474  -0.013  1.4142  0.4114  0.8086
 8195TIP3    H250697   7.785   2.409   0.122 -0.8278 -0.6013  0.0454
 8196TIP3   OH250698   2.919   3.515   6.045 -0.1091 -0.4006  0.3149
 8196TIP3    H150699   2.952   3.439   5.996  1.0020  0.7862 -0.8555
 8196TIP3    H250700   2.827   3.495   6.060  0.2331 -2.1364  0.3472
 8197TIP3   OH250701   5.536   4.108   1.807  0.6880  0.4686 -0.4349
 8197TIP3    H150702   5.632   4.106   1.810  0.7088 -0.2871 -1.2373
 8197TIP3    H250703   5.513   4.039   1.745 -0.4170 -0.2093  0.6873
 8198TIP3   OH250704   0.598   2.826   6.535  0.1189  0.0991  0.2588
 8198TIP3    H150705   0.523   2.866   6.579 -0.1226  1.1310 -1.0172
 8198TIP3    H250706   0.646   2.782   6.605 -0.9789  0.4949  1.3105
 8199TIP3   OH250707   3.185   7.686   0.276  0.3262 -1.0500  0.0759
 8199TIP3    H150708   3.215   7.733   0.354  0.3831 -1.5369  0.3491
 8199TIP3    H250709   3.170   7.596   0.306 -0.2884 -1.0875 -0.3222
 8200TIP3   OH250710   6.535   0.620   6.056 -0.1495 -0.2616 -0.0328
 8200TIP3    H150711   6.560   0.538   6.014 -1.3071  0.2802 -1.9386
 8200TIP3    H250712   6.553   0.607   6.149  1.8684 -1.8157 -0.5708
 8201TIP3   OH250713   4.945   4.053   1.008 -0.1242  0.1871  0.2014
 8201TIP3    H150714   5.003   4.067   1.083  0.7672 -0.6042 -0.3143
 8201TIP3    H250715   4.987   3.983   0.959 -1.1030  0.1692 -0.6335
 8202TIP3   OH250716   3.488   6.526   2.169 -0.1980  0.4903  0.6043
 8202TIP3    H150717   3.583   6.527   2.155 -0.5521  0.2281 -2.5023
 8202TIP3    H250718   3.458   6.611   2.137 -1.2720 -0.6212 -1.6096
 8203TIP3   OH250719   7.764   4.384   5.838  0.0727 -0.1767  0.5353
 8203TIP3    H150720   7.687   4.361   5.785  0.1414  0.0684  0.3285
 8203TIP3    H250721   7.822   4.309   5.830  0.7764  0.5049 -1.0287
 8204TIP3   OH250722   5.300   2.338   7.216  0.1934  0.0274 -0.1599
 8204TIP3    H150723   5.385   2.316   7.254  0.1536 -0.1131 -0.1525
 8204TIP3    H250724   5.321   2.397   7.144  0.4999 -1.8286 -1.6760
 8205TIP3   OH250725   7.035   3.113   7.700 -0.0284 -0.2255 -0.6682
 8205TIP3    H150726   6.989   3.058   7.763 -0.7460  0.6443 -0.4185
 8205TIP3    H250727   6.996   3.091   7.615  0.3445 -0.7716 -0.7061
 8206TIP3   OH250728   2.191   2.955   2.340  0.1699  0.3726  0.0903
 8206TIP3    H150729   2.184   2.874   2.289  1.4539  0.7206 -0.6765
 8206TIP3    H250730   2.277   2.951   2.381 -0.0589  1.0114  0.6506
 8207TIP3   OH250731   0.639   7.324   1.219  0.1188  0.2599 -0.3531
 8207TIP3    H150732   0.570   7.264   1.192 -1.3421  1.3732  0.7277
 8207TIP3    H250733   0.674   7.285   1.299  0.8190 -0.3454 -0.9438
 8208TIP3   OH250734   4.966   5.885   1.542  0.0858  0.0942 -0.0410
 8208TIP3    H150735   4.949   5.796   1.509  1.1102 -0.4706  0.8843
 8208TIP3    H250736   5.054   5.906   1.511 -0.0631  0.7057 -0.0642
 8209TIP3   OH250737   2.593   0.361   0.746 -0.9243 -0.1119  0.3309
 8209TIP3    H150738   2.674   0.413   0.749 -1.5348  1.0947 -1.7198
 8209TIP3    H250739   2.622   0.271   0.758  1.0986  0.0291 -2.3348
 8210TIP3   OH250740   3.093   4.243   7.459  0.2198 -0.5556 -0.3472
 8210TIP3    H150741   2.998   4.235   7.469 -0.1038  3.6683  2.2898
 8210TIP3    H250742   3.129   4.185   7.525 -0.7189  0.2464  0.9117
 8211TIP3   OH250743   1.208   1.275   1.349 -0.1915  0.5079 -0.0640
 8211TIP3    H150744   1.203   1.325   1.430 -0.5873 -0.0571  0.2601
 8211TIP3    H250745   1.258   1.332   1.289  1.1197  0.4435  0.9246
 8212TIP3   OH250746   1.867   4.125   1.163 -0.2718  0.2358  0.0063
 8212TIP3    H150747   1.924   4.068   1.110  0.1329 -0.1564  0.8380
 8212TIP3    H250748   1.779   4.108   1.130 -0.4184 -2.3235  1.4438
 8213TIP3   OH250749   3.925   0.778   0.809  0.3203 -0.2601 -0.1469
 8213TIP3    H150750   3.846   0.731   0.838  0.5782 -0.8677 -0.4064
 8213TIP3    H250751   3.992   0.709   0.801  0.2681 -0.1419 -2.1652
 8214TIP3   OH250752   5.745   1.105   1.564  0.2528  0.1746 -0.5268
 8214TIP3    H150753   5.775   1.015   1.547  1.9984  0.7166 -0.5050
 8214TIP3    H250754   5.658   1.109   1.524 -1.2893 -2.4191  2.1348
 8215TIP3   OH250755   2.645   5.320   5.742 -0.2321 -0.6669 -0.5533
 8215TIP3    H150756   2.559   5.323   5.700 -0.8007  0.9745  0.6435
 8215TIP3    H250757   2.641   5.243   5.799 -1.7782  0.6159  1.1732
 8216TIP3   OH250758   5.866   3.119   6.723 -0.1873 -0.2578  0.1394
 8216TIP3    H150759   5.782   3.124   6.768  1.0508  1.3528  2.5147
 8216TIP3    H250760   5.858   3.181   6.650 -1.8714 -2.1243 -1.3924
 8217TIP3   OH250761   5.824   5.420   6.824 -0.0975 -0.2722  0.3381
 8217TIP3    H150762   5.899   5.373   6.861  0.5513 -0.3218 -0.9692
 8217TIP3    H250763   5.769   5.441   6.900  0.8266 -0.9553  1.2317
 8218TIP3   OH250764   3.670   7.212   7.036 -0.4279  0.1393  0.3031
 8218TIP3    H150765   3.643   7.231   6.946  1.3942 -0.7584 -0.4753
 8218TIP3    H250766   3.696   7.297   7.071  1.4596  0.1525 -0.9779
 8219TIP3   OH250767   6.369   5.163   6.680  0.6092 -0.6193  0.5813
 8219TIP3    H150768   6.319   5.243   6.663  1.5891  0.1213  1.0852
 8219TIP3    H250769   6.443   5.168   6.620  0.2812 -1.5541  0.0653
 8220TIP3   OH250770   0.139   0.271   6.550 -0.7619  0.2118 -0.1539
 8220TIP3    H150771   0.194   0.345   6.524 -0.8112  0.4745  0.4729
 8220TIP3    H250772   0.085   0.253   6.473 -0.5519  0.6429 -0.4072
 8221TIP3   OH250773   3.764   0.695   0.073 -0.0204  0.5811  0.0429
 8221TIP3    H150774   3.704   0.767   0.055  0.5050  1.4337  1.5233
 8221TIP3    H250775   3.823   0.729   0.141  0.3996 -1.1577  0.6052
 8222TIP3   OH250776   7.883   3.329   6.904  0.0842  0.2816  0.3395
 8222TIP3    H150777   7.826   3.402   6.883 -1.9954 -1.3637 -0.0997
 8222TIP3    H250778   7.891   3.280   6.821 -1.7862 -2.0337  1.4038
 8223TIP3   OH250779   6.173   0.292   7.779 -0.3043 -0.2623  0.6765
 8223TIP3    H150780   6.157   0.351   7.853 -0.2912  1.7540 -0.8411
 8223TIP3    H250781   6.237   0.229   7.812  0.8685  1.4970  1.9464
 8224TIP3   OH250782   6.088   8.010   6.640 -0.0659 -0.0571 -0.2915
 8224TIP3    H150783   6.026   7.999   6.567 -0.1062 -1.8811 -0.0339
 8224TIP3    H250784   6.095   7.922   6.678  1.4208  0.4687  0.7164
 8225TIP3   OH250785   0.454   4.762   0.511  0.1450  0.3068  0.2252
 8225TIP3    H150786   0.377   4.810   0.539 -0.3909 -1.1108  1.2935
 8225TIP3    H250787   0.420   4.689   0.459  0.8386  0.3369 -0.2790
 8226TIP3   OH250788   0.606   5.599   6.674  0.1271  0.1289 -0.6351
 8226TIP3    H150789   0.646   5.518   6.705 -0.5932 -0.0602 -0.1750
 8226TIP3    H250790   0.673   5.666   6.687 -0.7800  0.4746  3.3426
 8227TIP3   OH250791   2.324   1.308   6.586  0.7587 -0.0560  0.0548
 8227TIP3    H150792   2.390   1.333   6.651  0.9197  0.4214 -0.2886
 8227TIP3    H250793   2.263   1.253   6.634 -0.4755  2.2218  1.2521
 8228TIP3   OH250794   7.708   5.442   1.026 -0.3849 -0.1700 -0.0350
 8228TIP3    H150795   7.779   5.505   1.022  0.6599 -1.2426  0.7716
 8228TIP3    H250796   7.747   5.359   0.997 -0.9286 -1.0511  1.5790
 8229TIP3   OH250797   7.763   2.614   1.211  0.2490 -0.0792 -0.4326
 8229TIP3    H150798   7.713   2.612   1.292  0.1666  0.5729 -0.4635
 8229TIP3    H250799   7.757   2.524   1.177 -1.4343  0.1367 -0.7690
 8230TIP3   OH250800   0.219   1.440   6.626 -0.6959  0.7041 -0.4398
 8230TIP3    H150801   0.162   1.508   6.663  0.2465  1.5191 -0.4240
 8230TIP3    H250802   0.199   1.361   6.676  1.2990  1.9875  2.6906
 8231TIP3   OH250803   2.925   4.746   7.125  0.2153 -0.2019  0.2015
 8231TIP3    H150804   2.854   4.686   7.148 -1.0333  1.2029  0.1180
 8231TIP3    H250805   2.887   4.806   7.061  1.5523  0.4403 -0.0354
 8232TIP3   OH250806   4.126   4.498   1.344 -0.4403 -0.4723  0.4491
 8232TIP3    H150807   4.104   4.429   1.407 -0.2416 -0.4225  0.5728
 8232TIP3    H250808   4.118   4.455   1.259  1.0340 -1.0338  0.5760
 8233TIP3   OH250809   6.526   5.417   6.678  0.4821 -0.3380  0.1821
 8233TIP3    H150810   6.513   5.512   6.675 -0.5583 -0.4422  0.7998
 8233TIP3    H250811   6.510   5.388   6.588  4.2205  0.4198 -0.8630
 8234TIP3   OH250812   0.633   6.920   0.096  0.4657 -0.4594 -0.8646
 8234TIP3    H150813   0.573   6.926   0.171  1.8051 -1.4477  0.3304
 8234TIP3    H250814   0.719   6.910   0.135  1.3598  0.2824 -2.5577
 8235TIP3   OH250815   7.959   3.900   1.096 -0.4844  0.0793 -0.3429
 8235TIP3    H150816   8.034   3.881   1.039 -0.1264 -0.2057  0.2193
 8235TIP3    H250817   7.976   3.989   1.129 -0.2431 -0.0933  0.0082
 8236TIP3   OH250818   0.818   8.021   7.331  0.3035  0.1130 -0.0042
 8236TIP3    H150819   0.748   7.968   7.293  1.8469 -2.0557 -0.0154
 8236TIP3    H250820   0.796   8.111   7.306 -3.0635 -0.2855  1.0082
 8237TIP3   OH250821   1.533   3.576   7.444 -0.3647 -0.0706  0.6405
 8237TIP3    H150822   1.614   3.620   7.467  0.2540 -0.0551 -1.3879
 8237TIP3    H250823   1.496   3.548   7.528  0.9764  1.2053  1.7030
 8238TIP3   OH250824   7.288   2.565   7.014 -0.0895  0.2904  0.2804
 8238TIP3    H150825   7.258   2.481   6.979 -0.5582 -0.1597  1.6777
 8238TIP3    H250826   7.316   2.545   7.104  4.1388  0.7223 -0.7105
 8239TIP3   OH250827   6.143   5.843   7.863  0.1343 -0.0624 -0.1585
 8239TIP3    H150828   6.155   5.850   7.958  2.4252 -0.7342 -0.3339
 8239TIP3    H250829   6.228   5.813   7.830  0.2026  2.4415 -2.6830
 8240TIP3   OH250830   5.448   1.654   1.522 -0.6440 -0.3243  0.1520
 8240TIP3    H150831   5.464   1.608   1.439 -0.7840 -0.2318  0.0730
 8240TIP3    H250832   5.385   1.722   1.499  0.6793  0.8893 -0.0521
 8241TIP3   OH250833   7.223   5.790   1.660  0.5737 -0.0247  0.4052
 8241TIP3    H150834   7.223   5.711   1.606  0.0399  0.1302  0.1732
 8241TIP3    H250835   7.282   5.851   1.615 -0.4002  0.3598 -0.3930
 8242TIP3   OH250836   3.489   3.990   0.660 -0.1337  0.3729 -0.0635
 8242TIP3    H150837   3.437   3.925   0.611 -1.1828 -1.0238  2.7119
 8242TIP3    H250838   3.427   4.030   0.721  1.4744  0.6768  1.4496
 8243TIP3   OH250839   5.375   0.626   7.280  0.2771  0.1370 -0.0561
 8243TIP3    H150840   5.399   0.704   7.330 -0.1712  0.2324  0.0176
 8243TIP3    H250841   5.458   0.585   7.258  0.4967  0.3667  0.3351
 8244TIP3   OH250842   7.617   1.876   6.324 -0.3615  0.0562 -0.1494
 8244TIP3    H150843   7.660   1.955   6.357 -2.2138 -0.0046  2.7836
 8244TIP3    H250844   7.613   1.889   6.229  1.9122  2.1175 -0.0641
 8245TIP3   OH250845   6.085   7.692   1.326  0.1580  0.9339  0.0632
 8245TIP3    H150846   6.050   7.670   1.239 -0.3383 -0.9983  0.6780
 8245TIP3    H250847   6.156   7.629   1.339 -0.1739  0.7942  1.2856
 8246TIP3   OH250848   3.492   2.026   0.126 -0.7083 -0.0270 -0.1448
 8246TIP3    H150849   3.402   1.994   0.117 -1.1724  0.7944  1.3030
 8246TIP3    H250850   3.508   2.074   0.045 -2.0971  1.0070  0.1460
 8247TIP3   OH250851   4.209   3.844   7.739  0.5506  0.6347  0.3592
 8247TIP3    H150852   4.281   3.881   7.790  1.2021 -1.4524  1.0846
 8247TIP3    H250853   4.130   3.876   7.782  1.0630  1.2272  0.8873
 8248TIP3   OH250854   1.455   4.227   0.122 -0.5579  0.6018 -0.0195
 8248TIP3    H150855   1.549   4.205   0.122  0.1310  3.2484  0.0256
 8248TIP3    H250856   1.426   4.208   0.033 -0.3854 -1.5746  0.3247
 8249TIP3   OH250857   1.423   7.989   7.556 -0.4033  0.2391  0.1962
 8249TIP3    H150858   1.380   7.965   7.474 -0.5370 -2.0400  0.8554
 8249TIP3    H250859   1.442   7.905   7.598  1.9277  1.2542  1.3529
 8250TIP3   OH250860   4.441   3.623   6.351  0.1649 -0.1175  0.0926
 8250TIP3    H150861   4.507   3.556   6.369  1.7006  1.4783  0.7091
 8250TIP3    H250862   4.376   3.579   6.297  1.0576 -2.1190  0.5694
 8251TIP3   OH250863   0.192   6.984   0.626 -0.1205 -0.2683 -0.5043
 8251TIP3    H150864   0.112   6.947   0.664  0.9299 -0.6285  1.4703
 8251TIP3    H250865   0.222   6.917   0.564 -0.8385 -0.5476 -0.5600
 8252TIP3   OH250866   6.587   4.397   5.903  0.0891 -0.1386  0.0828
 8252TIP3    H150867   6.584   4.324   5.965 -0.1517 -0.6068 -0.4793
 8252TIP3    H250868   6.539   4.366   5.826 -0.2936  0.7309 -0.0374
 8253TIP3   OH250869   1.660   0.722   1.066 -0.0811  0.2525  0.2253
 8253TIP3    H150870   1.601   0.796   1.082 -0.1256  0.5449 -1.2067
 8253TIP3    H250871   1.630   0.654   1.127 -1.8297  0.4282 -0.3728
 8254TIP3   OH250872   7.747   7.939   1.332 -0.2786 -0.7686  0.6698
 8254TIP3    H150873   7.823   7.889   1.359  2.3255  1.4235 -1.9171
 8254TIP3    H250874   7.758   8.025   1.372 -0.5901  0.0164 -0.8292
 8255TIP3   OH250875   7.547   1.731   7.304 -0.6486 -0.0040 -0.0789
 8255TIP3    H150876   7.458   1.752   7.274  0.3379  2.8578 -1.4258
 8255TIP3    H250877   7.574   1.659   7.248 -2.4942 -1.8588  1.2482
 8256TIP3   OH250878   1.049   4.635   1.339  0.4292 -0.0756 -0.3248
 8256TIP3    H150879   0.954   4.646   1.343  0.0024 -2.8292 -0.7015
 8256TIP3    H250880   1.075   4.615   1.428 -0.3157 -4.6693 -0.8785
 8257TIP3   OH250881   5.727   7.690   1.109 -0.5471  0.1198  0.6671
 8257TIP3    H150882   5.791   7.657   1.045  0.1681  0.6202  1.1021
 8257TIP3    H250883   5.771   7.765   1.149 -2.8569  3.1215 -1.8373
 8258TIP3   OH250884   0.935   5.659   0.881 -0.3120 -0.0228 -0.2359
 8258TIP3    H150885   0.922   5.658   0.786 -0.0434 -0.4090 -0.2694
 8258TIP3    H250886   0.984   5.740   0.897 -0.8183  0.3177 -0.3604
 8259TIP3   OH250887   5.177   4.091   7.319  0.1746 -0.1601  0.1682
 8259TIP3    H150888   5.109   4.069   7.255  0.8903 -0.1120 -0.6381
 8259TIP3    H250889   5.230   4.157   7.275 -0.3945  1.2732  1.5448
 8260TIP3   OH250890   3.009   5.957   5.800  0.4400 -0.0604 -0.7458
 8260TIP3    H150891   3.078   5.950   5.734  1.0043  1.0898 -0.3010
 8260TIP3    H250892   3.012   6.048   5.828 -1.0452 -0.0711 -0.4745
 8261TIP3   OH250893   6.604   2.113   0.007 -0.2833 -0.1715  0.5390
 8261TIP3    H150894   6.560   2.191   0.041  0.3950 -0.5982  2.4885
 8261TIP3    H250895   6.678   2.147  -0.043 -0.0875  0.4420  1.2353
 8262TIP3   OH250896   2.158   7.246   1.340  0.3057  0.5541  0.2068
 8262TIP3    H150897   2.109   7.313   1.291 -2.0647 -0.3780  1.1720
 8262TIP3    H250898   2.100   7.171   1.344  1.4678 -0.3246  2.2199
 8263TIP3   OH250899   6.308   1.718   1.977  0.2176 -0.1171  0.1727
 8263TIP3    H150900   6.351   1.633   1.978  1.1030  0.2995 -0.6443
 8263TIP3    H250901   6.346   1.763   1.901 -1.6429  0.2933 -0.5841
 8264TIP3   OH250902   5.533   2.799   1.179 -0.0077 -0.2501 -0.2287
 8264TIP3    H150903   5.533   2.891   1.153 -2.3219 -0.1907 -0.2126
 8264TIP3    H250904   5.539   2.751   1.097  1.9908 -0.1412 -0.1955
 8265TIP3   OH250905   7.907   4.854   0.591  0.0394  0.3561  0.5937
 8265TIP3    H150906   7.835   4.915   0.607 -1.0463 -1.0052  1.0100
 8265TIP3    H250907   7.891   4.781   0.650  1.8830  0.1060  0.8340
 8266TIP3   OH250908   7.088   1.311   0.080 -0.2023  0.2430 -0.2981
 8266TIP3    H150909   7.018   1.288   0.019  0.8183  1.3363 -1.9608
 8266TIP3    H250910   7.057   1.391   0.123 -0.0870  0.5892 -0.8531
 8267TIP3   OH250911   4.799   2.245   5.714 -0.0755 -0.3733  0.5777
 8267TIP3    H150912   4.762   2.157   5.725 -0.1084 -0.3406  0.7241
 8267TIP3    H250913   4.729   2.304   5.739  0.0294 -0.3091  0.7192
 8268TIP3   OH250914   4.117   4.287   6.828 -0.2009  1.0409  0.6137
 8268TIP3    H150915   4.085   4.328   6.748  0.6350  0.4051 -0.0685
 8268TIP3    H250916   4.139   4.361   6.886 -0.8612  1.4993  0.2894
 8269TIP3   OH250917   2.233   5.595   0.438  0.0768 -0.4208  0.2589
 8269TIP3    H150918   2.141   5.607   0.417  0.6051  1.1991 -1.2967
 8269TIP3    H250919   2.273   5.565   0.357  1.1383  0.1692  0.5406
 8270TIP3   OH250920   7.147   1.623   6.312 -0.0555  0.0733  0.2487
 8270TIP3    H150921   7.073   1.574   6.347 -0.5433 -0.2332 -1.1396
 8270TIP3    H250922   7.223   1.585   6.357 -0.6904  0.2280  1.5097
 8271TIP3   OH250923   4.214   7.309   0.512  0.3113  0.4436 -0.6550
 8271TIP3    H150924   4.260   7.390   0.490 -1.1207  1.6275  0.5434
 8271TIP3    H250925   4.248   7.285   0.599 -0.7599  0.9282 -0.0856
 8272TIP3   OH250926   1.094   1.138   0.829  0.1174 -0.1587  0.1683
 8272TIP3    H150927   1.059   1.064   0.879  0.3662 -0.7258 -0.4803
 8272TIP3    H250928   1.078   1.215   0.885  0.5180 -0.7907  1.1891
 8273TIP3   OH250929   6.485   6.754   6.852  0.0537  0.5955 -0.2636
 8273TIP3    H150930   6.493   6.738   6.946 -0.8139 -0.8322 -0.3956
 8273TIP3    H250931   6.442   6.675   6.819 -1.3159  1.8603 -1.5819
 8274TIP3   OH250932   7.385   6.926   6.120  0.0989  0.0830  0.2819
 8274TIP3    H150933   7.424   7.009   6.096  1.2797 -1.1628 -2.5750
 8274TIP3    H250934   7.306   6.949   6.168  0.3947  2.8268 -0.4187
 8275TIP3   OH250935   6.510   5.876   5.627 -0.0680 -0.0074 -0.2362
 8275TIP3    H150936   6.562   5.955   5.609 -0.3374 -0.0651 -1.3477
 8275TIP3    H250937   6.575   5.806   5.631  0.1568  0.2433  0.6002
 8276TIP3   OH250938   2.699   6.138   7.742  0.1799 -0.1187 -0.3735
 8276TIP3    H150939   2.672   6.051   7.715 -0.0346 -0.7692  1.7223
 8276TIP3    H250940   2.633   6.197   7.703 -0.5288 -1.0440 -0.6054
 8277TIP3   OH250941   5.147   4.148   0.221 -0.1635 -0.0201 -0.2476
 8277TIP3    H150942   5.105   4.069   0.189  0.9577 -0.1021 -1.5850
 8277TIP3    H250943   5.101   4.168   0.303 -1.4654 -1.1840 -0.6616
 8278TIP3   OH250944   6.879   4.033   6.295  0.1992 -0.0692 -0.1689
 8278TIP3    H150945   6.910   4.102   6.354 -0.1157 -1.2127  1.4040
 8278TIP3    H250946   6.915   4.057   6.210  1.7289  0.9931  0.7133
 8279TIP3   OH250947   2.431   4.353   7.708 -0.2744  0.0539 -0.5306
 8279TIP3    H150948   2.441   4.328   7.616 -0.6710  1.9713 -1.1421
 8279TIP3    H250949   2.507   4.314   7.752  1.3598  1.2558 -2.1720
 8280TIP3   OH250950   1.409   0.878   6.406  0.0661 -0.0452  0.3507
 8280TIP3    H150951   1.334   0.922   6.365 -0.5792 -0.4668  1.0619
 8280TIP3    H250952   1.394   0.785   6.389  0.1244 -0.1729  1.0014
 8281TIP3   OH250953   3.523   6.144   7.702 -0.8403 -0.3251  0.8447
 8281TIP3    H150954   3.495   6.135   7.793 -1.5895 -0.7794  0.5793
 8281TIP3    H250955   3.510   6.057   7.664  0.5351 -0.4397  0.5858
 8282TIP3   OH250956   0.709   1.879   5.681  0.2895 -0.1951 -0.5159
 8282TIP3    H150957   0.805   1.879   5.674  0.4253 -1.4160  0.8302
 8282TIP3    H250958   0.691   1.946   5.748  0.3664 -1.2098  0.5543
 8283TIP3   OH250959   3.735   5.933   6.141  0.2248  0.4020 -0.2239
 8283TIP3    H150960   3.705   6.018   6.110  0.2539 -0.2263 -2.0824
 8283TIP3    H250961   3.719   5.873   6.068  0.1887 -1.2101  1.0332
 8284TIP3   OH250962   5.192   5.827   6.598  0.4012 -0.2847  0.1223
 8284TIP3    H150963   5.121   5.828   6.661 -0.0588  1.3425 -0.3873
 8284TIP3    H250964   5.256   5.889   6.633  1.5564 -1.6452  0.5202
 8285TIP3   OH250965   4.256   0.296   1.496  0.0241 -0.1399  0.0027
 8285TIP3    H150966   4.294   0.280   1.582 -0.2210  1.6391  0.4874
 8285TIP3    H250967   4.327   0.335   1.445  0.3260 -1.6753 -0.8082
 8286TIP3   OH250968   1.637   2.942   0.193 -1.1114  0.3786 -0.7481
 8286TIP3    H150969   1.563   2.884   0.178 -1.3942 -0.3409  2.5163
 8286TIP3    H250970   1.714   2.888   0.178 -1.0948  1.1206 -4.1192
 8287TIP3   OH250971   3.756   5.198   6.930 -0.6605 -0.5323  0.3055
 8287TIP3    H150972   3.667   5.232   6.938 -0.4634  0.6899 -1.9469
 8287TIP3    H250973   3.808   5.273   6.902  1.0184 -1.3381  1.0911
 8288TIP3   OH250974   4.199   0.243   0.694 -0.2485  0.0729  0.4195
 8288TIP3    H150975   4.267   0.184   0.724  0.5483 -0.5249 -2.2686
 8288TIP3    H250976   4.167   0.203   0.612 -1.8897  1.7550  0.1721
 8289TIP3   OH250977   8.036   0.486   1.106  0.4565  0.1412  0.0399
 8289TIP3    H150978   7.953   0.529   1.128  1.6335  1.7977  1.4342
 8289TIP3    H250979   8.029   0.400   1.148 -0.1271  0.6911  1.1213
 8290TIP3   OH250980   6.039   5.559   6.546 -0.0424  0.4571 -0.5389
 8290TIP3    H150981   6.111   5.598   6.497 -1.5629  0.4074 -3.0008
 8290TIP3    H250982   6.027   5.472   6.507  0.1098 -0.5577  1.5165
 8291TIP3   OH250983   1.450   4.516   0.220  0.1197 -0.2574  0.3039
 8291TIP3    H150984   1.447   4.420   0.226 -0.2578 -0.3366 -0.8260
 8291TIP3    H250985   1.514   4.534   0.152  0.5613  0.3226  0.8630
 8292TIP3   OH250986   1.157   2.025   5.546 -0.0019  0.0287 -0.0692
 8292TIP3    H150987   1.206   2.090   5.596  0.2028  0.5062 -0.8611
 8292TIP3    H250988   1.220   1.990   5.483 -0.1114 -0.9503  0.3532
 8293TIP3   OH250989   4.455   5.994   7.668 -0.4051  0.5189 -0.1011
 8293TIP3    H150990   4.478   6.007   7.760  0.8687 -2.3144  0.0808
 8293TIP3    H250991   4.526   6.035   7.619  0.8281 -0.9983  0.3218
 8294TIP3   OH250992   7.067   7.938   7.258 -0.3737  0.2094 -0.4397
 8294TIP3    H150993   7.044   7.902   7.344 -1.3841  1.7187 -0.0426
 8294TIP3    H250994   7.160   7.960   7.265 -0.5612  0.7810  0.4470
 8295TIP3   OH250995   0.551   3.009   2.256 -0.1209 -0.2344 -0.1739
 8295TIP3    H150996   0.628   3.062   2.274 -0.3785  0.6127 -1.3758
 8295TIP3    H250997   0.493   3.023   2.331  0.5637 -0.2465  0.3582
 8296TIP3   OH250998   5.560   1.535   0.941 -0.2125  0.3321 -0.0762
 8296TIP3    H150999   5.497   1.574   0.880  0.4334  1.7594  0.1422
 8296TIP3    H251000   5.644   1.572   0.915  0.6056 -1.7057 -0.5020
 8297TIP3   OH251001   3.069   0.851   7.924 -0.2246  0.1154  0.4252
 8297TIP3    H151002   3.076   0.911   7.849 -0.7760  2.4612  2.1189
 8297TIP3    H251003   3.145   0.872   7.979 -1.4393  0.6543  1.9637
 8298TIP3   OH251004   1.836   7.874   6.157  0.4985  0.0882 -0.4373
 8298TIP3    H151005   1.898   7.817   6.202  1.5009  1.3592 -0.1772
 8298TIP3    H251006   1.879   7.898   6.075 -0.0471  0.2136 -0.6938
 8299TIP3   OH251007   2.972   2.952   0.191  0.2801  0.0882  0.8009
 8299TIP3    H151008   2.905   2.884   0.192  0.3220  0.0324  0.1883
 8299TIP3    H251009   3.038   2.921   0.253  1.3354 -1.5154 -1.0400
 8300TIP3   OH251010   6.773   0.610   7.428 -0.0809  0.2399  0.3518
 8300TIP3    H151011   6.734   0.690   7.392  0.7704 -0.0845 -1.4081
 8300TIP3    H251012   6.752   0.613   7.522 -2.3840  1.1479 -0.1345
 8301TIP3   OH251013   2.417   5.482   6.255  0.0472 -0.0540 -0.5787
 8301TIP3    H151014   2.471   5.553   6.290 -0.4364  0.9782 -1.8838
 8301TIP3    H251015   2.327   5.507   6.277 -0.0386 -1.0733  0.3404
 8302TIP3   OH251016   7.015   3.930   0.698  0.0700 -0.1192  0.4730
 8302TIP3    H151017   7.083   3.863   0.685  0.8808  0.2806  2.3028
 8302TIP3    H251018   6.980   3.945   0.611 -0.3756 -3.1584  0.0051
 8303TIP3   OH251019   2.080   4.211   6.629  0.0477  1.0400 -0.7873
 8303TIP3    H151020   2.090   4.173   6.717 -0.0349 -1.2610 -1.6907
 8303TIP3    H251021   2.023   4.287   6.642 -0.6869  0.2411  1.0467
 8304TIP3   OH251022   5.795   5.265   2.311  0.4923 -0.1380 -0.1136
 8304TIP3    H151023   5.741   5.344   2.312  1.0338  0.2459 -0.6937
 8304TIP3    H251024   5.743   5.200   2.357 -0.3561  0.2992 -0.4353
 8305TIP3   OH251025   6.366   0.657   0.078  0.4985 -0.3611 -0.2219
 8305TIP3    H151026   6.421   0.715   0.133 -0.0858  0.9365 -0.9547
 8305TIP3    H251027   6.377   0.692  -0.010  0.0778 -1.3691 -0.6745
 8306TIP3   OH251028   3.986   3.040   7.878 -0.4702  0.0762  0.4115
 8306TIP3    H151029   4.066   3.079   7.844 -1.6434  0.0591 -2.6172
 8306TIP3    H251030   4.011   2.950   7.901  0.4383  0.1573 -0.2215
 8307TIP3   OH251031   7.688   3.875   1.048 -0.2321 -0.6061 -0.0445
 8307TIP3    H151032   7.784   3.874   1.057 -0.2625  0.3577  0.4857
 8307TIP3    H251033   7.657   3.812   1.114 -0.0252  0.0987  0.7377
 8308TIP3   OH251034   1.005   0.327   5.624 -0.0897  0.1799  0.2751
 8308TIP3    H151035   0.993   0.401   5.683 -1.4662  0.9568 -0.9289
 8308TIP3    H251036   0.924   0.322   5.574  1.3480  0.1306 -2.2090
 8309TIP3   OH251037   5.493   5.759   2.739 -0.0145  0.3402  0.3535
 8309TIP3    H151038   5.510   5.828   2.675  1.2509  0.6659  0.9933
 8309TIP3    H251039   5.488   5.678   2.688  2.9337  0.2913 -0.0677
 8310TIP3   OH251040   2.528   0.146   7.646 -0.0871 -0.1744 -0.1511
 8310TIP3    H151041   2.496   0.101   7.725  0.6025  0.8833  0.7506
 8310TIP3    H251042   2.466   0.121   7.578 -0.8411 -0.9140  0.7784
 8311TIP3   OH251043   3.350   0.271   6.458 -0.2904 -0.1253  0.1845
 8311TIP3    H151044   3.432   0.229   6.484  0.1097 -0.2062 -1.1250
 8311TIP3    H251045   3.342   0.252   6.365 -2.1352 -0.6485  0.4122
 8312TIP3   OH251046   3.013   7.789   0.880  0.1057 -0.1399 -0.0485
 8312TIP3    H151047   3.071   7.727   0.835 -1.2970 -0.4909 -1.4427
 8312TIP3    H251048   3.016   7.762   0.972  0.6370 -1.3706 -0.4041
 8313TIP3   OH251049   7.610   6.397   6.223  0.4375  0.2159  0.3469
 8313TIP3    H151050   7.639   6.363   6.138 -0.2671  2.1149 -0.7137
 8313TIP3    H251051   7.530   6.349   6.242 -0.2944  0.9064 -0.8927
 8314TIP3   OH251052   5.643   0.165   7.780 -0.0990 -0.1286 -0.3175
 8314TIP3    H151053   5.709   0.235   7.776 -0.3188  0.1039 -0.0095
 8314TIP3    H251054   5.652   0.118   7.697  0.7883 -0.4073 -0.0713
 8315TIP3   OH251055   4.435   2.262   7.279 -0.3557 -0.0326  0.4613
 8315TIP3    H151056   4.379   2.210   7.221 -0.9818  1.3131 -0.1892
 8315TIP3    H251057   4.433   2.215   7.362 -1.4221 -0.7091  0.0795
 8316TIP3   OH251058   1.087   3.108   0.477  0.0646  0.0799  0.3843
 8316TIP3    H151059   1.144   3.050   0.428  0.2946  0.4491  0.2065
 8316TIP3    H251060   1.111   3.093   0.569 -0.3160 -0.5568  0.3780
 8317TIP3   OH251061   0.758   5.454   6.394 -0.0821 -0.0975 -0.0925
 8317TIP3    H151062   0.826   5.501   6.442 -0.4111 -0.9584  1.2353
 8317TIP3    H251063   0.753   5.501   6.310  0.7569  1.1965  0.5399
 8318TIP3   OH251064   3.556   7.389   7.739  0.5840 -0.0943 -0.5734
 8318TIP3    H151065   3.500   7.400   7.815 -1.0454 -0.3843 -1.6949
 8318TIP3    H251066   3.583   7.297   7.742  0.6705 -0.0567 -0.2456
 8319TIP3   OH251067   3.983   7.036   6.691  0.4486  0.4693  0.5000
 8319TIP3    H151068   3.955   6.948   6.667  0.9782  0.3266  0.3780
 8319TIP3    H251069   4.047   7.022   6.761 -0.4358  0.8333  1.4083
 8320TIP3   OH251070   5.447   6.909   7.724  0.2942  0.0079  0.2823
 8320TIP3    H151071   5.497   6.987   7.748  0.5364 -0.3019  0.7896
 8320TIP3    H251072   5.357   6.940   7.715  0.4305  0.3921  0.2456
 8321TIP3   OH251073   7.133   7.583   7.275 -0.0207  0.2026 -0.1309
 8321TIP3    H151074   7.100   7.617   7.358  1.0645  0.9486  0.0129
 8321TIP3    H251075   7.163   7.660   7.227  0.5522 -0.3454 -0.6773
 8322TIP3   OH251076   1.905   6.646   7.759 -0.0964 -0.4863  0.0359
 8322TIP3    H151077   1.905   6.551   7.773  1.2663 -0.3998  0.8055
 8322TIP3    H251078   1.913   6.657   7.664 -4.3569 -1.0887 -0.6225
 8323TIP3   OH251079   5.340   2.577   2.252 -0.3750  0.2630 -0.7854
 8323TIP3    H151080   5.277   2.515   2.289 -0.8083  1.2805  0.2585
 8323TIP3    H251081   5.379   2.531   2.178 -0.5356 -1.3153  0.0688
 8324TIP3   OH251082   5.216   7.014   1.347  0.1825  0.2382 -0.1421
 8324TIP3    H151083   5.216   7.053   1.434  0.9548 -1.1193  0.4926
 8324TIP3    H251084   5.148   6.948   1.350 -1.9234  2.1578 -1.5707
 8325TIP3   OH251085   2.359   7.733   5.035  0.3507 -0.8283 -0.1261
 8325TIP3    H151086   2.335   7.674   4.964 -1.7708 -1.3897  0.9759
 8325TIP3    H251087   2.421   7.683   5.089  2.8069 -0.0361 -2.0061
 8326TIP3   OH251088   6.154   3.436   5.982 -0.7410  0.6460 -0.1632
 8326TIP3    H151089   6.070   3.479   6.002 -0.5467  0.2095  1.7003
 8326TIP3    H251090   6.204   3.504   5.937 -1.1680  1.7695  0.9772
 8327TIP3   OH251091   0.411   3.791   2.094 -0.3809 -0.1995 -0.1286
 8327TIP3    H151092   0.393   3.884   2.103 -0.9283 -0.3639  0.6079
 8327TIP3    H251093   0.500   3.780   2.127 -0.3418  0.0491 -0.1528
 8328TIP3   OH251094   0.657   1.407   7.121 -0.3666  0.2606  0.5866
 8328TIP3    H151095   0.635   1.315   7.110 -1.3875  0.5807 -0.1536
 8328TIP3    H251096   0.683   1.415   7.213 -0.3965 -0.7321  0.6863
 8329TIP3   OH251097   2.311   6.537   5.361  0.5291  0.0431  0.2727
 8329TIP3    H151098   2.400   6.504   5.349 -0.1261 -1.3973 -0.9924
 8329TIP3    H251099   2.286   6.511   5.450  1.1122 -0.1900  0.3659
 8330TIP3   OH251100   2.520   5.005   0.672 -0.0615  0.4429  0.1564
 8330TIP3    H151101   2.550   4.952   0.746  2.5538  0.8256 -0.5486
 8330TIP3    H251102   2.546   5.094   0.694  0.8568  0.5452 -1.2390
 8331TIP3   OH251103   1.666   4.198   6.820 -0.1241 -0.0397  0.0856
 8331TIP3    H151104   1.588   4.164   6.778  0.0251  0.4892 -0.6329
 8331TIP3    H251105   1.699   4.266   6.761  0.6552  0.0244  0.5652
 8332TIP3   OH251106   2.636   6.949   0.820 -0.7289  0.4623  0.0800
 8332TIP3    H151107   2.633   6.896   0.741  1.6326  0.0751  0.1671
 8332TIP3    H251108   2.631   7.039   0.789 -0.3625  0.2994 -0.4701
 8333TIP3   OH251109   2.205   1.369   1.205  0.3182 -0.9062 -0.0749
 8333TIP3    H151110   2.167   1.283   1.183  0.8360 -0.9044 -1.0381
 8333TIP3    H251111   2.219   1.411   1.120  0.9413 -0.2416  0.3455
 8334TIP3   OH251112   1.695   5.211   5.785 -0.2498 -0.3722 -0.0906
 8334TIP3    H151113   1.764   5.243   5.843 -0.2183 -0.5191 -0.0471
 8334TIP3    H251114   1.642   5.153   5.840 -0.4585 -0.1937 -0.1009
 8335TIP3   OH251115   4.618   5.558   6.158  0.2846 -0.9789  0.1711
 8335TIP3    H151116   4.614   5.641   6.205  0.2749  0.6031 -2.4587
 8335TIP3    H251117   4.527   5.528   6.154  0.2325 -0.9145  0.7019
 8336TIP3   OH251118   2.467   1.463   0.696  0.2200  0.3303  0.1808
 8336TIP3    H151119   2.558   1.471   0.666 -0.0865  0.7939 -0.6639
 8336TIP3    H251120   2.415   1.491   0.621 -0.6575 -0.7864  0.3593
 8337TIP3   OH251121   1.329   5.982   5.273 -0.3303  0.1993 -0.4912
 8337TIP3    H151122   1.356   5.934   5.195 -0.1102  3.1530 -2.3747
 8337TIP3    H251123   1.235   5.963   5.281 -1.2136  2.4634 -3.6533
 8338TIP3   OH251124   6.245   3.260   7.490  0.5298  0.2970  0.5261
 8338TIP3    H151125   6.295   3.328   7.536  0.7221  1.2982 -1.0658
 8338TIP3    H251126   6.175   3.308   7.446  0.2155 -0.6372 -0.0143
 8339TIP3   OH251127   1.805   4.115   1.436  0.4361  0.2496 -0.0398
 8339TIP3    H151128   1.887   4.164   1.432  0.9440 -0.5569  0.2447
 8339TIP3    H251129   1.783   4.098   1.344  0.2183  1.0427 -0.1454
 8340TIP3   OH251130   7.081   7.655   6.625  0.8083 -0.3090  0.1499
 8340TIP3    H151131   7.076   7.751   6.623  1.9392 -0.2352 -0.2911
 8340TIP3    H251132   7.011   7.626   6.567  0.9241  0.2766 -0.2953
 8341TIP3   OH251133   2.011   6.577   5.925 -0.3917 -0.3637 -0.2499
 8341TIP3    H151134   1.969   6.506   5.876 -2.1245 -0.3523  1.0986
 8341TIP3    H251135   1.959   6.584   6.005 -0.0170  2.1584 -0.1510
 8342TIP3   OH251136   0.942   5.349   7.076  0.1627 -0.7507  0.5273
 8342TIP3    H151137   1.003   5.277   7.061 -2.7409 -3.0036 -1.5155
 8342TIP3    H251138   0.957   5.408   7.002  1.2839 -0.1228  1.2203
 8343TIP3   OH251139   2.521   6.605   0.389 -0.4309 -0.7619 -0.1440
 8343TIP3    H151140   2.527   6.692   0.430  0.3296 -1.0972  0.4774
 8343TIP3    H251141   2.436   6.572   0.417 -2.0478  0.8677 -2.6430
 8344TIP3   OH251142   4.668   4.850   5.554  0.0859 -0.2415 -0.5920
 8344TIP3    H151143   4.696   4.761   5.577  1.5747  0.2099 -0.5258
 8344TIP3    H251144   4.642   4.844   5.462  1.0584 -0.5788 -0.8607
 8345TIP3   OH251145   5.467   3.929   6.764 -0.4258 -0.3163  0.1273
 8345TIP3    H151146   5.479   3.995   6.832  1.2945  0.1627 -0.5829
 8345TIP3    H251147   5.391   3.959   6.714  0.5475  1.3530 -0.4159
 8346TIP3   OH251148   2.501   1.512   1.593  0.0149  0.3053  0.1270
 8346TIP3    H151149   2.442   1.540   1.663  2.5333  1.3258  1.9967
 8346TIP3    H251150   2.550   1.439   1.631  1.2981  0.7442 -0.6434
 8347TIP3   OH251151   4.990   3.301   0.992  0.0605  0.8182  1.1085
 8347TIP3    H151152   4.949   3.312   0.907 -0.6416  0.8480  1.4433
 8347TIP3    H251153   4.929   3.246   1.041  1.0945 -0.3378  1.1501
 8348TIP3   OH251154   0.246   5.508   0.732  0.1196  0.0088 -0.4495
 8348TIP3    H151155   0.292   5.587   0.704  1.8176  0.0059  1.9891
 8348TIP3    H251156   0.300   5.473   0.803 -0.0262 -3.9194 -2.0520
 8349TIP3   OH251157   6.118   6.506   7.148  0.3625 -0.2532  0.1543
 8349TIP3    H151158   6.125   6.529   7.055 -1.3741 -1.5859 -0.3886
 8349TIP3    H251159   6.142   6.413   7.151 -0.8654 -0.5792  0.7761
 8350TIP3   OH251160   0.266   0.428   1.686 -0.1727 -0.8441  0.1157
 8350TIP3    H151161   0.244   0.495   1.751  2.6915  0.6322 -0.2509
 8350TIP3    H251162   0.219   0.350   1.715 -3.0322  1.0560  1.0099
 8351TIP3   OH251163   5.975   4.698   0.340  0.1111  0.4390 -0.3725
 8351TIP3    H151164   5.980   4.635   0.269  0.3077 -1.9926  1.6782
 8351TIP3    H251165   6.056   4.749   0.333 -0.1928  0.7378 -2.2301
 8352TIP3   OH251166   6.045   3.078   1.274  0.0638  0.3149 -0.1461
 8352TIP3    H151167   5.962   3.060   1.318  1.0948  0.8061  2.1270
 8352TIP3    H251168   6.088   2.992   1.269 -0.2019  0.2008 -0.5578
 8353TIP3   OH251169   1.046   5.264   5.748  0.2966 -0.3805  0.2736
 8353TIP3    H151170   0.982   5.300   5.687  0.2154  0.8843  1.0612
 8353TIP3    H251171   1.019   5.173   5.761  0.9456 -1.0309 -2.3586
 8354TIP3   OH251172   1.488   4.961   7.604 -0.1072 -0.1143 -0.7313
 8354TIP3    H151173   1.482   4.891   7.538  0.3812  0.1007 -1.0115
 8354TIP3    H251174   1.550   5.024   7.566 -1.7957  1.3090 -1.2322
 8355TIP3   OH251175   8.101   0.744   7.541 -0.7292 -0.4130  0.3146
 8355TIP3    H151176   8.026   0.783   7.584  1.1671  4.3220 -0.0815
 8355TIP3    H251177   8.088   0.762   7.448  0.2870 -0.6611  0.1113
 8356TIP3   OH251178   6.487   1.513   7.352 -0.7626  0.0598  0.7565
 8356TIP3    H151179   6.431   1.459   7.296 -1.9986  0.6247  1.4141
 8356TIP3    H251180   6.555   1.453   7.383  0.2527 -0.1691 -1.6683
 8357TIP3   OH251181   3.296   3.969   0.390  0.0418  0.1266 -0.2225
 8357TIP3    H151182   3.257   4.046   0.432  0.6573 -0.3470  1.2624
 8357TIP3    H251183   3.314   3.998   0.301 -1.3676  1.1414 -0.2153
 8358TIP3   OH251184   0.316   2.022   5.695  0.0835 -0.3146  0.1732
 8358TIP3    H151185   0.264   2.008   5.616  0.4088 -0.3278 -0.0427
 8358TIP3    H251186   0.287   2.107   5.728  0.8881  0.3194 -0.7109
 8359TIP3   OH251187   0.907   1.363   1.549  0.0999  0.5111 -0.0248
 8359TIP3    H151188   0.842   1.431   1.567 -0.8236 -0.3014 -0.1712
 8359TIP3    H251189   0.964   1.401   1.483 -1.4154  0.5695 -1.3703
 8360TIP3   OH251190   8.027   3.944   1.772 -0.2307 -0.1503 -0.1068
 8360TIP3    H151191   7.979   3.928   1.690  1.0480  1.0393 -1.1334
 8360TIP3    H251192   8.012   4.036   1.791 -1.1043 -0.5767  1.4410
 8361TIP3   OH251193   7.262   1.667   1.782  0.3618  0.2828  0.0958
 8361TIP3    H151194   7.244   1.590   1.729 -0.2083 -0.7915  1.7712
 8361TIP3    H251195   7.298   1.633   1.864  0.7298  1.8399  0.6225
 8362TIP3   OH251196   4.219   4.335   7.598  0.8547  0.0084 -0.0496
 8362TIP3    H151197   4.166   4.319   7.675  1.8364  0.0555  0.6519
 8362TIP3    H251198   4.307   4.350   7.632  2.2405 -4.0144 -1.3850
 8363TIP3   OH251199   6.263   1.510   7.611 -0.4640  0.0250 -0.4699
 8363TIP3    H151200   6.346   1.522   7.658 -1.4047  0.5746  1.1228
 8363TIP3    H251201   6.262   1.580   7.546  0.8605 -0.7436 -1.3628
 8364TIP3   OH251202   4.746   1.733   7.585 -0.1876 -0.3424  0.1083
 8364TIP3    H151203   4.817   1.755   7.646  0.8296 -1.5344 -0.5893
 8364TIP3    H251204   4.745   1.637   7.584 -2.3502 -0.3755  0.6700
 8365TIP3   OH251205   0.143   0.951   0.068  0.6476  0.0187 -0.1735
 8365TIP3    H151206   0.050   0.939   0.083  0.5595  2.4487  1.8068
 8365TIP3    H251207   0.185   0.916   0.147  1.2870  0.3786 -0.3478
 8366TIP3   OH251208   6.865   3.409   0.026 -0.4939  0.0312  0.3389
 8366TIP3    H151209   6.833   3.331   0.072 -2.5699 -0.2040 -1.3775
 8366TIP3    H251210   6.786   3.460   0.007  0.0393 -0.3802 -3.7707
 8367TIP3   OH251211   5.101   3.124   0.276 -0.1917 -0.2290 -0.3354
 8367TIP3    H151212   5.170   3.127   0.209  0.0909 -0.0481 -0.0363
 8367TIP3    H251213   5.036   3.063   0.240  0.4915 -1.0154 -0.2714
 8368TIP3   OH251214   5.370   7.964   7.306 -0.1994  0.1070  0.1373
 8368TIP3    H151215   5.397   7.932   7.392  0.0790 -0.9714 -0.3308
 8368TIP3    H251216   5.280   7.931   7.296  0.0059 -0.3512 -0.2505
 8369TIP3   OH251217   1.570   1.489   0.050 -0.0580  0.6202 -0.4041
 8369TIP3    H151218   1.503   1.538   0.002  0.1782  0.4562 -0.9002
 8369TIP3    H251219   1.636   1.467  -0.016  0.5727  0.9298  0.1143
 8370TIP3   OH251220   5.447   0.467   7.581 -0.5246 -0.7272  0.4383
 8370TIP3    H151221   5.444   0.557   7.550  0.5834 -0.7606  0.1889
 8370TIP3    H251222   5.388   0.420   7.522  0.2672 -0.4796 -0.5823
 8371TIP3   OH251223   0.859   1.957   1.463  0.5771 -0.3198 -0.7199
 8371TIP3    H151224   0.828   1.944   1.374  1.1477  0.1207 -0.9872
 8371TIP3    H251225   0.955   1.955   1.456  0.6291 -1.0872  0.0023
 8372TIP3   OH251226   2.651   3.450   1.225  0.1829  0.1093  0.0964
 8372TIP3    H151227   2.659   3.480   1.134  0.6558 -0.6209 -0.1101
 8372TIP3    H251228   2.562   3.477   1.251  0.0434  0.3206 -0.5765
 8373TIP3   OH251229   5.212   7.681   7.939 -0.0096 -0.3337  0.2192
 8373TIP3    H151230   5.190   7.678   7.846  0.1694 -1.0759  0.1913
 8373TIP3    H251231   5.170   7.604   7.977  1.6554 -1.2248  0.3480
 8374TIP3   OH251232   0.233   3.576   7.862  0.0566 -0.3854  0.1208
 8374TIP3    H151233   0.147   3.615   7.879  0.7424  1.0829  0.3691
 8374TIP3    H251234   0.241   3.576   7.767 -0.1838 -0.4484  0.1005
 8375TIP3   OH251235   0.660   5.150   1.084 -0.1285 -0.1414  0.3533
 8375TIP3    H151236   0.726   5.102   1.034  0.6750 -0.0476  1.2985
 8375TIP3    H251237   0.584   5.092   1.084 -0.4155  0.1546 -1.5591
 8376TIP3   OH251238   7.575   2.155   7.572 -0.4863 -0.5458 -0.4569
 8376TIP3    H151239   7.492   2.203   7.573  0.0526  0.4221  0.3782
 8376TIP3    H251240   7.599   2.149   7.665  2.0672  2.3242 -0.7579
 8377TIP3   OH251241   7.756   4.075   1.852 -0.4565 -0.7856 -0.2396
 8377TIP3    H151242   7.696   4.097   1.781 -1.1804  0.4040  0.7023
 8377TIP3    H251243   7.826   4.140   1.845 -0.8761 -0.2364  0.5251
 8378TIP3   OH251244   4.736   1.566   7.312  0.2751 -0.2392 -0.2465
 8378TIP3    H151245   4.702   1.655   7.305 -2.8677 -1.0576  2.1356
 8378TIP3    H251246   4.677   1.513   7.259  3.0158 -0.8802 -2.9124
 8379TIP3   OH251247   6.395   3.637   0.506  0.2582 -0.4426 -0.5239
 8379TIP3    H151248   6.330   3.639   0.436 -0.9863  1.4958  0.6018
 8379TIP3    H251249   6.351   3.595   0.579  0.5701  0.0870 -0.0254
 8380TIP3   OH251250   5.482   1.138   1.475  0.0871 -0.2801 -0.2344
 8380TIP3    H151251   5.447   1.208   1.530 -2.6929 -1.3614 -0.4828
 8380TIP3    H251252   5.454   1.160   1.386  2.0360 -0.0687 -0.8522
 8381TIP3   OH251253   5.226   6.453   6.949  0.0150  0.2453 -0.2723
 8381TIP3    H151254   5.314   6.416   6.951 -0.1925 -0.2879 -0.7883
 8381TIP3    H251255   5.240   6.546   6.930  0.4151 -0.0691 -1.6160
 8382TIP3   OH251256   2.621   6.922   6.878  0.0919 -0.1510 -0.2088
 8382TIP3    H151257   2.660   6.919   6.791  0.9885 -1.7468  0.1955
 8382TIP3    H251258   2.528   6.938   6.863 -0.4921 -3.9974 -1.7898
 8383TIP3   OH251259   0.544   4.730   1.422 -1.1806 -0.0454 -0.1777
 8383TIP3    H151260   0.527   4.741   1.515 -3.2505 -0.0609 -0.5025
 8383TIP3    H251261   0.537   4.819   1.386 -1.2960 -0.1636 -0.4479
 8384TIP3   OH251262   2.071   2.482   7.709  0.0594 -0.2002  0.1403
 8384TIP3    H151263   2.163   2.471   7.685 -0.1178  0.6818 -1.0415
 8384TIP3    H251264   2.051   2.573   7.688 -0.9840 -0.2673  0.7516
 8385TIP3   OH251265   7.311   7.700   1.078 -0.0361 -0.1640 -0.0726
 8385TIP3    H151266   7.236   7.669   1.130 -0.0205 -0.8320 -0.4314
 8385TIP3    H251267   7.287   7.788   1.051 -0.3594 -0.0848  0.4585
 8386TIP3   OH251268   7.898   1.741   1.394  0.1046  0.3624 -0.0363
 8386TIP3    H151269   7.879   1.813   1.454  1.6397 -0.7413  1.8834
 8386TIP3    H251270   7.854   1.665   1.432 -1.6335  0.2193 -2.1152
 8387TIP3   OH251271   1.102   4.010   7.085 -0.6984  0.3085  0.0009
 8387TIP3    H151272   1.045   3.971   7.151 -0.2657  0.5071  0.4965
 8387TIP3    H251273   1.067   4.099   7.072 -1.4348 -0.0902 -0.8288
 8388TIP3   OH251274   0.400   6.008   7.234  0.0384 -0.2659 -0.0699
 8388TIP3    H151275   0.445   5.931   7.199  0.5395 -0.4212  0.8839
 8388TIP3    H251276   0.369   5.980   7.320 -0.7342  0.2657 -0.1679
 8389TIP3   OH251277   8.002   3.990   6.852 -0.1625 -0.0744  0.6097
 8389TIP3    H151278   7.916   3.967   6.817 -0.1949  0.9956 -0.0707
 8389TIP3    H251279   7.983   4.059   6.917  0.1799  0.2026  0.4190
 8390TIP3   OH251280   6.753   3.707   0.313  0.7360  0.3017  0.2331
 8390TIP3    H151281   6.739   3.734   0.404 -0.5014  0.6772 -0.0511
 8390TIP3    H251282   6.785   3.785   0.270  1.5964  0.0496  0.3854
 8391TIP3   OH251283   3.730   5.406   6.622  0.1051  0.1494 -0.1440
 8391TIP3    H151284   3.700   5.319   6.651  0.7871  0.2668  0.9742
 8391TIP3    H251285   3.670   5.430   6.552 -0.7267 -0.7897  0.2260
 8392TIP3   OH251286   7.220   3.813   1.227 -0.1469  0.5835  0.3324
 8392TIP3    H151287   7.276   3.841   1.299  0.1872 -0.7970  0.6277
 8392TIP3    H251288   7.149   3.764   1.268 -0.5769  0.7391 -0.1981
 8393TIP3   OH251289   4.990   3.781   6.539  0.3736  0.0360 -0.0239
 8393TIP3    H151290   4.977   3.870   6.571  0.6654 -0.1356  0.5679
 8393TIP3    H251291   4.940   3.778   6.457 -0.2868  0.5012  0.3589
 8394TIP3   OH251292   6.735   2.605   6.841 -0.1695  0.3166 -1.1177
 8394TIP3    H151293   6.694   2.560   6.915  3.0850  0.3839  0.9180
 8394TIP3    H251294   6.685   2.576   6.764 -0.4353 -4.1127  0.4242
 8395TIP3   OH251295   0.874   7.867   1.797 -0.2531  0.0004  0.2753
 8395TIP3    H151296   0.805   7.865   1.863 -0.6206  0.7304 -0.0808
 8395TIP3    H251297   0.949   7.824   1.840 -0.6649 -0.0484  0.9573
 8396TIP3   OH251298   7.830   2.451   2.643 -0.2585 -0.0435 -0.5027
 8396TIP3    H151299   7.756   2.509   2.659 -0.4489 -0.7227  1.4600
 8396TIP3    H251300   7.799   2.364   2.670  0.5185 -0.7764 -1.8746
 8397TIP3   OH251301   1.872   6.358   1.693 -0.3445 -0.2785 -0.3284
 8397TIP3    H151302   1.801   6.295   1.685  0.5804 -1.2690 -1.0984
 8397TIP3    H251303   1.948   6.306   1.720  0.6287  0.3330 -1.7507
 8398TIP3   OH251304   1.208   5.264   1.185 -0.0485  0.5199 -0.1958
 8398TIP3    H151305   1.179   5.343   1.139  0.5854 -0.0931 -1.7205
 8398TIP3    H251306   1.304   5.266   1.180  0.0200  0.1533  0.6504
 8399TIP3   OH251307   5.752   8.094   1.108 -0.0533  0.5451 -0.3906
 8399TIP3    H151308   5.716   8.165   1.056  1.6573  2.3745  0.8082
 8399TIP3    H251309   5.820   8.134   1.161 -0.0768 -1.6840  1.5227
 8400TIP3   OH251310   6.866   3.274   6.668  0.2749 -0.2075  0.6914
 8400TIP3    H151311   6.775   3.285   6.695  0.3049 -1.7081  1.4999
 8400TIP3    H251312   6.897   3.363   6.651 -0.9920  0.4179  1.5443
 8401TIP3   OH251313   3.695   2.275   7.777 -0.1992  0.7644 -0.2308
 8401TIP3    H151314   3.743   2.358   7.784  1.7671 -0.3069 -0.0697
 8401TIP3    H251315   3.748   2.214   7.829 -1.2491 -0.7359 -0.8850
 8402TIP3   OH251316   4.200   3.702   6.465 -0.1576 -0.1607 -0.0315
 8402TIP3    H151317   4.170   3.651   6.390  0.9920 -0.9577  0.0187
 8402TIP3    H251318   4.292   3.678   6.475 -0.1333  0.3746  1.2683
 8403TIP3   OH251319   1.179   4.342   0.905 -0.3159  0.5167 -0.1120
 8403TIP3    H151320   1.104   4.336   0.846 -0.6722  0.0267  0.3829
 8403TIP3    H251321   1.143   4.375   0.987 -0.2546 -1.0546  0.5707
 8404TIP3   OH251322   4.666   0.800   5.617  0.1437 -0.0563 -0.6937
 8404TIP3    H151323   4.598   0.861   5.588  0.1868 -0.1726 -1.0316
 8404TIP3    H251324   4.748   0.846   5.599  0.2342 -0.8056 -2.3009
 8405TIP3   OH251325   3.918   7.814   0.560 -0.6798  0.2302  0.4785
 8405TIP3    H151326   3.900   7.907   0.545 -2.5593  0.0315  1.3127
 8405TIP3    H251327   4.013   7.808   0.561 -0.5169  1.9650 -0.6512
 8406TIP3   OH251328   0.597   6.454   6.296 -0.0831 -0.3255  0.5436
 8406TIP3    H151329   0.573   6.539   6.259 -0.2789  0.7654  2.9798
 8406TIP3    H251330   0.548   6.390   6.244 -0.1160  1.0549 -1.1951
 8407TIP3   OH251331   4.656   7.322   6.296  0.2331 -0.1257 -0.0630
 8407TIP3    H151332   4.734   7.318   6.352 -0.0874  2.0125  0.6470
 8407TIP3    H251333   4.690   7.348   6.211  0.2389  2.3426  0.6145
 8408TIP3   OH251334   1.922   5.283   6.372 -0.2570  0.9136  0.4741
 8408TIP3    H151335   1.845   5.255   6.420  1.3125  0.6168  2.9860
 8408TIP3    H251336   1.970   5.339   6.433  0.8413  2.2619 -1.5035
 8409TIP3   OH251337   4.453   1.442   1.774 -0.0131  0.2771  0.0717
 8409TIP3    H151338   4.384   1.395   1.727 -0.2556  1.1817 -0.4982
 8409TIP3    H251339   4.533   1.394   1.753  0.2312  1.7726 -2.9599
 8410TIP3   OH251340   0.490   4.080   1.942  0.0141  0.3519  0.0474
 8410TIP3    H151341   0.446   4.150   1.894  0.1989  0.5787  0.2052
 8410TIP3    H251342   0.425   4.049   2.005 -0.2816 -0.0492 -0.4444
 8411TIP3   OH251343   2.385   5.556   1.790 -0.4079  0.2709  0.6209
 8411TIP3    H151344   2.377   5.498   1.866 -0.7629  0.6024  0.8382
 8411TIP3    H251345   2.327   5.518   1.724 -0.8987  0.5621  0.8801
 8412TIP3   OH251346   1.364   4.064   6.459 -0.9113 -0.7642  0.0372
 8412TIP3    H151347   1.349   4.108   6.375 -0.8135  1.2142  1.0135
 8412TIP3    H251348   1.297   3.996   6.461  0.0099 -1.8745 -2.2730
 8413TIP3   OH251349   3.499   7.622   0.018 -0.1634  0.1387 -0.0085
 8413TIP3    H151350   3.450   7.540   0.013 -0.6692  0.3476  1.0751
 8413TIP3    H251351   3.432   7.690   0.009 -0.0908  0.4253  1.3148
 8414TIP3   OH251352   6.457   4.836   7.359 -0.0623 -0.1008 -0.1665
 8414TIP3    H151353   6.540   4.799   7.327 -0.1336  0.3201 -0.8574
 8414TIP3    H251354   6.458   4.926   7.327 -1.1841 -0.3391 -0.9187
 8415TIP3   OH251355   3.667   1.749   7.277 -0.0581 -0.2671  0.8018
 8415TIP3    H151356   3.637   1.832   7.242  1.0297 -0.7713 -1.5646
 8415TIP3    H251357   3.611   1.732   7.352 -1.9329  1.4028 -0.1369
 8416TIP3   OH251358   0.199   8.072   0.736 -0.2971 -0.7047 -0.3360
 8416TIP3    H151359   0.272   8.110   0.785 -0.4956 -0.7086 -0.0311
 8416TIP3    H251360   0.221   8.086   0.644  1.4292 -3.1501 -0.3827
 8417TIP3   OH251361   6.635   2.854   1.412  0.3270  0.5887 -0.0570
 8417TIP3    H151362   6.603   2.811   1.333  0.2993 -0.1728  0.3530
 8417TIP3    H251363   6.591   2.938   1.414 -0.1312  0.3638 -0.5380
 8418TIP3   OH251364   3.212   2.309   0.205 -0.1793 -0.0268 -0.7694
 8418TIP3    H151365   3.134   2.274   0.247  0.8639 -0.8494  0.5647
 8418TIP3    H251366   3.277   2.239   0.212  0.5467  0.4461 -2.2968
 8419TIP3   OH251367   1.786   6.562   6.758 -0.5762  0.2328  0.4721
 8419TIP3    H151368   1.701   6.541   6.719 -0.5081  0.3582  0.2509
 8419TIP3    H251369   1.847   6.505   6.712 -0.7849 -1.2663  1.9644
 8420TIP3   OH251370   6.507   6.187   1.186 -0.0985  0.1000  0.0016
 8420TIP3    H151371   6.567   6.228   1.248 -0.4516 -0.0940  0.4826
 8420TIP3    H251372   6.523   6.093   1.196  0.1639  0.0851 -0.5345
 8421TIP3   OH251373   2.210   7.943   7.651  0.0580  0.6384 -0.1470
 8421TIP3    H151374   2.159   7.974   7.576 -1.6473  0.6269  0.9602
 8421TIP3    H251375   2.257   8.021   7.682 -0.7627  1.1077 -0.0569
 8422TIP3   OH251376   5.166   1.047   0.128  0.9218 -0.5146  0.2095
 8422TIP3    H151377   5.197   0.975   0.183  0.6075 -0.6974  0.1460
 8422TIP3    H251378   5.074   1.058   0.152  0.4063 -1.4845 -1.2243
 8423TIP3   OH251379   6.741   3.134   7.299  0.2939  0.2627 -0.8237
 8423TIP3    H151380   6.657   3.127   7.343 -0.3652 -0.7709 -2.1632
 8423TIP3    H251381   6.768   3.225   7.312  0.5049 -0.1302  2.2356
 8424TIP3   OH251382   0.409   5.969   0.475  0.1893 -0.2001  0.5309
 8424TIP3    H151383   0.419   6.044   0.534  0.2796  0.4571 -0.3091
 8424TIP3    H251384   0.482   5.977   0.414  1.0242 -1.7568  1.2563
 8425TIP3   OH251385   4.626   8.020   6.116 -0.0534 -0.0496 -0.6557
 8425TIP3    H151386   4.572   8.078   6.169  0.9435 -0.3351  0.7162
 8425TIP3    H251387   4.714   8.027   6.154  0.1770 -2.1390 -0.6773
 8426TIP3   OH251388   4.973   0.008   7.104  0.0850  0.7247  0.0812
 8426TIP3    H151389   4.880   0.000   7.084  0.0029  1.3486  0.2149
 8426TIP3    H251390   5.016   0.009   7.018  0.1720 -1.7133  0.0221
 8427TIP3   OH251391   2.105   7.696   7.668 -0.1573 -0.2302  0.0722
 8427TIP3    H151392   2.141   7.663   7.586  1.2462  0.4718  0.3736
 8427TIP3    H251393   2.119   7.790   7.664 -1.5334  0.0080  0.4454
 8428TIP3   OH251394   7.315   3.492   7.310  0.1517 -0.1173  0.2516
 8428TIP3    H151395   7.349   3.489   7.400  2.2582  0.7042 -0.4501
 8428TIP3    H251396   7.236   3.545   7.316  0.9856  1.0820  1.4487
 8429TIP3   OH251397   0.268   0.580   1.445 -0.2418 -0.3298  0.1571
 8429TIP3    H151398   0.264   0.512   1.512  1.5801 -0.9699 -0.3140
 8429TIP3    H251399   0.180   0.616   1.442 -0.4474 -0.4405  2.6995
 8430TIP3   OH251400   0.804   7.100   2.144 -0.1744 -0.2423  0.0436
 8430TIP3    H151401   0.834   7.191   2.137 -1.4796  0.1780 -0.4611
 8430TIP3    H251402   0.863   7.060   2.208  0.5592  0.8967  0.1117
 8431TIP3   OH251403   1.606   7.128   0.093 -0.3805 -0.2192 -0.0953
 8431TIP3    H151404   1.652   7.090   0.019 -0.6855  3.1084 -2.2023
 8431TIP3    H251405   1.675   7.167   0.146 -0.3277 -0.7481  0.2315
 8432TIP3   OH251406   8.071   7.155   6.883  0.5434  0.0140 -0.3486
 8432TIP3    H151407   8.149   7.192   6.841  1.7852 -1.3097  0.6847
 8432TIP3    H251408   8.094   7.064   6.900 -2.4032 -1.3722 -2.8290
 8433TIP3   OH251409   6.078   6.099   1.551 -0.1098 -0.4117 -0.0045
 8433TIP3    H151410   6.017   6.028   1.567 -1.8782  1.0175 -0.1050
 8433TIP3    H251411   6.051   6.168   1.612  1.4055  0.2937 -0.0745
 8434TIP3   OH251412   3.014   4.221   6.972 -0.2773 -0.0974 -0.1893
 8434TIP3    H151413   3.047   4.142   6.929 -1.9837 -1.2741  0.5732
 8434TIP3    H251414   3.089   4.253   7.022 -0.2788 -3.0460  2.0099
 8435TIP3   OH251415   0.495   6.193   1.544 -0.0208  0.7607 -0.2307
 8435TIP3    H151416   0.528   6.236   1.623  0.6099  2.5030 -1.3831
 8435TIP3    H251417   0.539   6.108   1.544  3.1087  2.2437 -0.6983
 8436TIP3   OH251418   5.908   1.321   1.671  0.4781  0.3814 -0.5707
 8436TIP3    H151419   5.863   1.288   1.749 -0.2415  0.6041 -0.8833
 8436TIP3    H251420   5.854   1.291   1.598  1.2122  0.0666 -0.9999
 8437TIP3   OH251421   4.713   6.820   6.529 -0.2024 -0.3544  0.0485
 8437TIP3    H151422   4.635   6.838   6.478  0.2929  2.7999  0.2007
 8437TIP3    H251423   4.781   6.804   6.464 -0.2000  0.6757 -0.2090
 8438TIP3   OH251424   6.112   3.818   7.003  0.5689  0.3622 -0.3623
 8438TIP3    H151425   6.053   3.860   7.065  0.4016 -1.5123  0.8154
 8438TIP3    H251426   6.090   3.857   6.918 -0.8681  1.2217  0.3758
 8439TIP3   OH251427   4.125   0.980   1.990  0.3516  0.0952  0.8686
 8439TIP3    H151428   4.102   1.061   2.034 -0.8715  1.5658 -2.1766
 8439TIP3    H251429   4.218   0.990   1.969  0.8900 -0.5293  2.7378
 8440TIP3   OH251430   6.243   0.297   6.077  0.2517  0.2349  0.0321
 8440TIP3    H151431   6.323   0.272   6.031  0.4870  1.4940 -0.2844
 8440TIP3    H251432   6.172   0.278   6.015  0.3672 -0.2024  0.0336
 8441TIP3   OH251433   1.968   2.384   0.809  0.6910 -0.2366 -0.5474
 8441TIP3    H151434   1.879   2.418   0.821  1.1825  0.6618  0.7583
 8441TIP3    H251435   1.963   2.332   0.729 -0.9108  0.1359 -0.7237
 8442TIP3   OH251436   6.534   0.170   1.433  0.5963 -0.1644  0.0023
 8442TIP3    H151437   6.615   0.182   1.384 -0.8075  1.1680 -2.1633
 8442TIP3    H251438   6.494   0.092   1.393  0.5440 -0.4734  0.6556
 8443TIP3   OH251439   3.426   4.579   0.388 -0.0471  0.1900  0.5276
 8443TIP3    H151440   3.354   4.516   0.379 -0.0161  0.3195 -0.7564
 8443TIP3    H251441   3.447   4.578   0.481  0.9207 -2.7696  0.3873
 8444TIP3   OH251442   1.281   6.705   0.985  0.2087  0.3982  0.0340
 8444TIP3    H151443   1.301   6.671   0.898  1.4865 -0.5706  0.6677
 8444TIP3    H251444   1.359   6.754   1.010  0.1277  0.1114  0.8749
 8445TIP3   OH251445   1.404   6.443   0.314  0.2485 -0.7583  0.8869
 8445TIP3    H151446   1.412   6.378   0.245  1.7719 -0.6528  0.9330
 8445TIP3    H251447   1.440   6.401   0.392  2.6180  0.5729  0.5885
 8446TIP3   OH251448   4.136   4.600   7.526 -0.1542 -0.5315 -0.6784
 8446TIP3    H151449   4.107   4.622   7.437  0.8438 -1.2595 -1.2069
 8446TIP3    H251450   4.147   4.504   7.525  0.9397 -0.4337 -0.1213
 8447TIP3   OH251451   7.330   7.046   0.501 -0.3296  0.5875 -0.8398
 8447TIP3    H151452   7.388   6.975   0.527 -0.9166 -0.7912 -3.0411
 8447TIP3    H251453   7.383   7.125   0.510  0.7022 -0.2283  0.5677
 8448TIP3   OH251454   4.356   4.826   0.306  0.2620 -0.0839 -0.2037
 8448TIP3    H151455   4.278   4.877   0.284  0.1857 -0.7271 -1.5582
 8448TIP3    H251456   4.402   4.816   0.222  1.3059 -0.5340  0.4019
 8449TIP3   OH251457   3.691   1.377   7.367 -0.0048 -0.0831  0.5191
 8449TIP3    H151458   3.673   1.344   7.279  0.6679 -0.0777  0.3743
 8449TIP3    H251459   3.616   1.431   7.389  1.2593  2.6263 -1.3705
 8450TIP3   OH251460   0.260   6.470   6.331 -0.3185 -0.2641  0.3924
 8450TIP3    H151461   0.306   6.418   6.265 -1.8120 -0.2017 -0.7420
 8450TIP3    H251462   0.219   6.405   6.388  0.7297 -0.3155  1.1192
 8451TIP3   OH251463   6.463   0.800   0.279 -0.4665  0.1688 -0.5067
 8451TIP3    H151464   6.558   0.809   0.266 -0.4509 -0.6155 -1.0043
 8451TIP3    H251465   6.455   0.756   0.364 -0.3215 -1.0280 -1.0886
 8452TIP3   OH251466   5.528   2.438   0.147  0.4939 -0.0450  0.5932
 8452TIP3    H151467   5.533   2.488   0.229 -0.9526 -0.3755  0.9179
 8452TIP3    H251468   5.470   2.490   0.091  0.5797 -0.3808  0.1938
 8453TIP3   OH251469   5.921   2.886   5.565 -0.0465  0.2743 -0.8166
 8453TIP3    H151470   6.016   2.873   5.563 -0.2071 -1.4070  0.7260
 8453TIP3    H251471   5.910   2.972   5.605  0.8234  0.6384 -1.3245
 8454TIP3   OH251472   7.455   5.287   0.167 -0.3205 -1.1183 -0.0882
 8454TIP3    H151473   7.449   5.192   0.158 -0.2320 -1.1242 -0.0850
 8454TIP3    H251474   7.534   5.301   0.220 -0.0636 -1.0213 -0.4957
 8455TIP3   OH251475   5.650   0.758   6.670 -0.3234 -0.1490 -0.2108
 8455TIP3    H151476   5.663   0.816   6.595 -1.7561  0.6757  0.1429
 8455TIP3    H251477   5.728   0.769   6.724  0.0910  0.2918 -0.8868
 8456TIP3   OH251478   6.549   7.371   6.446 -0.8091  0.0419  0.0899
 8456TIP3    H151479   6.471   7.366   6.391 -0.1007 -0.9299 -0.8743
 8456TIP3    H251480   6.618   7.400   6.386  0.0489 -1.3613  0.3501
 8457TIP3   OH251481   4.938   5.058   0.087 -0.2104  0.3208  0.1989
 8457TIP3    H151482   4.893   4.983   0.126  0.4621 -0.4311 -0.4363
 8457TIP3    H251483   4.879   5.132   0.103 -0.9539 -0.3622  0.7117
 8458TIP3   OH251484   5.818   4.173   1.810 -0.4368  0.7019 -0.4633
 8458TIP3    H151485   5.809   4.254   1.859  0.9814  1.0745 -0.7799
 8458TIP3    H251486   5.901   4.135   1.840 -0.6198 -0.1556 -0.9965
 8459TIP3   OH251487   6.819   0.390   5.795  0.6911 -0.7352  0.1801
 8459TIP3    H151488   6.880   0.333   5.749  1.6319  1.8354 -1.9756
 8459TIP3    H251489   6.758   0.420   5.728 -1.1400 -0.8393  1.6980
 8460TIP3   OH251490   3.642   0.018   6.797  0.2302  0.3360  0.2309
 8460TIP3    H151491   3.663  -0.046   6.865 -1.3234 -2.4563 -1.6905
 8460TIP3    H251492   3.599   0.090   6.843 -0.0757 -1.0813  2.2828
 8461TIP3   OH251493   1.311   3.818   6.058  0.2309 -0.5237  0.3299
 8461TIP3    H151494   1.402   3.840   6.081 -0.0792 -0.5042  1.5956
 8461TIP3    H251495   1.320   3.748   5.993  1.1439 -1.5236  1.4948
 8462TIP3   OH251496   5.877   6.606   7.641 -0.1783 -0.3010  0.2286
 8462TIP3    H151497   5.938   6.649   7.701  0.4519 -0.7684 -0.0580
 8462TIP3    H251498   5.932   6.574   7.569 -0.7165 -0.9911  0.1041
 8463TIP3   OH251499   3.701   2.941   6.200 -0.5638  0.0386 -0.2172
 8463TIP3    H151500   3.638   2.871   6.219  0.0736 -0.7511 -0.9247
 8463TIP3    H251501   3.656   3.000   6.141 -1.4407  0.7584  1.1291
 8464TIP3   OH251502   4.268   3.397   1.053  0.7696  0.2619 -0.2229
 8464TIP3    H151503   4.224   3.481   1.066 -1.2023 -0.6415 -0.7150
 8464TIP3    H251504   4.260   3.380   0.959 -1.7457 -1.9066  0.2679
 8465TIP3   OH251505   4.879   4.815   7.487 -0.0576  0.2886  0.2498
 8465TIP3    H151506   4.809   4.872   7.455 -0.9292  0.1107  1.7503
 8465TIP3    H251507   4.848   4.726   7.469  0.5730  0.2380 -0.6294
 8466TIP3   OH251508   2.773   0.360   7.799  0.0393  0.2272  0.0396
 8466TIP3    H151509   2.857   0.392   7.832  0.2979  1.0108 -1.2971
 8466TIP3    H251510   2.747   0.292   7.861  1.8778 -0.3371  0.2509
 8467TIP3   OH251511   2.883   1.573   6.527  0.8876  0.1173  0.5407
 8467TIP3    H151512   2.944   1.575   6.453  1.1633  2.4582  0.7438
 8467TIP3    H251513   2.931   1.615   6.599 -0.4693  0.7731  1.1011
 8468TIP3   OH251514   5.976   0.653   6.854 -0.3611 -0.3555  0.4479
 8468TIP3    H151515   5.984   0.618   6.942  1.0249  1.3491  1.0665
 8468TIP3    H251516   6.050   0.615   6.806 -0.4329 -0.3767  0.3533
 8469TIP3   OH251517   2.371   1.868   6.065  0.3541  0.5198  0.7687
 8469TIP3    H151518   2.395   1.843   6.155 -0.8436 -0.3775  0.8678
 8469TIP3    H251519   2.402   1.958   6.056  0.1208  0.7772  2.2479
 8470TIP3   OH251520   6.659   2.893   1.102  0.2751 -0.1720 -0.0295
 8470TIP3    H151521   6.619   2.848   1.028  2.3338  0.3295 -1.5522
 8470TIP3    H251522   6.639   2.986   1.086  0.0564 -0.1265  0.4968
 8471TIP3   OH251523   2.360   3.437   0.119  0.4057 -0.0524 -0.1710
 8471TIP3    H151524   2.430   3.499   0.142 -0.1316  1.0181 -1.2709
 8471TIP3    H251525   2.280   3.478   0.151  0.2611 -1.2876  1.1016
 8472TIP3   OH251526   4.519   6.796   7.588 -0.3487  0.1386 -0.1370
 8472TIP3    H151527   4.581   6.852   7.541 -1.8233  0.5714 -1.6851
 8472TIP3    H251528   4.537   6.708   7.554 -1.9228  0.5465 -2.2666
 8473TIP3   OH251529   4.443   2.868   0.468  0.3103 -0.0315 -0.1409
 8473TIP3    H151530   4.430   2.773   0.469  0.3093 -0.0435  1.1673
 8473TIP3    H251531   4.358   2.904   0.445  0.2152 -0.3374 -0.2743
 8474TIP3   OH251532   5.650   1.065   1.162  0.0140 -0.6309 -0.1777
 8474TIP3    H151533   5.603   1.115   1.095 -0.8836 -1.7122 -0.3826
 8474TIP3    H251534   5.703   1.131   1.208 -1.0416  0.4906 -0.5089
 8475TIP3   OH251535   5.210   0.944   2.458  0.0543 -0.0566 -0.0063
 8475TIP3    H151536   5.183   0.987   2.377  0.0231  0.0514  0.0605
 8475TIP3    H251537   5.153   0.868   2.465  1.2809 -1.1007 -1.0267
 8476TIP3   OH251538   2.819   3.998   0.687  0.4341  0.6594 -0.3970
 8476TIP3    H151539   2.866   3.915   0.694  0.6844  0.7960 -0.4223
 8476TIP3    H251540   2.743   3.979   0.632 -0.5583  0.0070  1.1565
 8477TIP3   OH251541   7.588   3.377   2.187 -0.1842 -0.1669  0.1871
 8477TIP3    H151542   7.554   3.454   2.140 -1.1290 -0.8490 -0.2948
 8477TIP3    H251543   7.509   3.328   2.212  0.2736  0.2760  2.7195
 8478TIP3   OH251544   1.196   3.367   6.631 -0.3794  0.7802 -0.2401
 8478TIP3    H151545   1.274   3.423   6.632  0.5339 -0.3455  2.7835
 8478TIP3    H251546   1.160   3.375   6.719 -0.9729 -2.3194 -0.0969
 8479TIP3   OH251547   3.816   2.409   1.081 -0.3224  0.2617  0.1170
 8479TIP3    H151548   3.845   2.353   1.153  0.7957  2.0964  1.1704
 8479TIP3    H251549   3.865   2.377   1.004  2.6949  1.5796  1.3128
 8480TIP3   OH251550   2.916   6.422   6.080 -0.2161  0.1586  0.3001
 8480TIP3    H151551   2.830   6.384   6.098 -0.6962  1.4636  0.9381
 8480TIP3    H251552   2.957   6.430   6.166  0.7306 -0.8266 -0.0390
 8481TIP3   OH251553   1.623   6.287   6.373 -0.4551 -0.2293  0.3342
 8481TIP3    H151554   1.601   6.310   6.464  0.3403 -1.9629  1.0218
 8481TIP3    H251555   1.660   6.367   6.336  0.3506  0.1896  1.9528
 8482TIP3   OH251556   3.128   0.182   0.554  0.1621  0.0481  0.5965
 8482TIP3    H151557   3.143   0.204   0.646  0.5187  1.0467  0.3060
 8482TIP3    H251558   3.053   0.122   0.556  0.7895 -0.7423  1.6133
 8483TIP3   OH251559   3.164   2.374   7.875  0.0319 -0.2489 -0.4075
 8483TIP3    H151560   3.186   2.351   7.966 -0.9260  0.6607  0.0758
 8483TIP3    H251561   3.078   2.414   7.881 -0.6782 -1.4481 -1.9253
 8484TIP3   OH251562   5.965   7.864   7.000 -0.3637  0.1569 -0.0085
 8484TIP3    H151563   5.895   7.921   6.970  0.5802  0.0254 -2.7461
 8484TIP3    H251564   5.977   7.887   7.092 -1.2981  3.0047 -0.5108
 8485TIP3   OH251565   3.078   4.365   6.457  0.4838  0.4531 -0.1598
 8485TIP3    H151566   3.023   4.366   6.535  1.1259  2.0300  0.3154
 8485TIP3    H251567   3.127   4.447   6.461  0.2495  0.7755 -2.4354
 8486TIP3   OH251568   1.277   6.851   1.368 -0.3065 -0.2535 -0.2509
 8486TIP3    H151569   1.323   6.814   1.293  1.2654  0.4209  0.3418
 8486TIP3    H251570   1.336   6.836   1.442 -1.2956  0.1527  0.6502
 8487TIP3   OH251571   5.154   5.251   0.061  0.4845 -0.5851  0.0098
 8487TIP3    H151572   5.102   5.171   0.060 -0.9961  0.3261 -1.7073
 8487TIP3    H251573   5.120   5.302   0.134  0.3555 -0.8421  0.1301
 8488TIP3   OH251574   6.552   7.331   2.112 -0.1216 -0.0961 -0.7706
 8488TIP3    H151575   6.602   7.403   2.150  0.0013 -0.8879  0.6667
 8488TIP3    H251576   6.617   7.274   2.073  0.1041 -0.8320  0.5931
 8489TIP3   OH251577   4.815   5.826   0.112 -0.3554 -0.2271 -0.0032
 8489TIP3    H151578   4.870   5.808   0.188 -0.1751 -1.0693 -0.3283
 8489TIP3    H251579   4.850   5.907   0.076 -1.9535  1.5991  2.2112
 8490TIP3   OH251580   0.432   6.991   1.623 -0.7224 -0.2174  0.3834
 8490TIP3    H151581   0.414   7.080   1.653  0.0904  0.0027  0.2506
 8490TIP3    H251582   0.453   7.000   1.530 -2.7481 -0.8365 -0.1908
 8491TIP3   OH251583   4.499   5.053   7.117 -0.2587 -0.5569 -0.1860
 8491TIP3    H151584   4.538   5.132   7.079  0.8657 -1.7626 -1.6519
 8491TIP3    H251585   4.409   5.052   7.085 -0.4767  0.4355  0.3621
 8492TIP3   OH251586   1.038   1.801   0.594 -0.0066 -0.2051  0.1257
 8492TIP3    H151587   1.001   1.866   0.654  0.3070  0.3652 -0.2892
 8492TIP3    H251588   1.053   1.849   0.513  1.4966 -0.4485  0.2356
 8493TIP3   OH251589   2.407   6.847   1.473  0.8156 -0.3351  0.2972
 8493TIP3    H151590   2.503   6.842   1.476  1.2641  3.3796 -1.8320
 8493TIP3    H251591   2.386   6.842   1.380 -1.0395 -0.7106  0.7102
 8494TIP3   OH251592   7.909   6.641   6.739  0.1287 -0.0392  0.7360
 8494TIP3    H151593   7.902   6.737   6.734  0.5825  0.0040  0.9283
 8494TIP3    H251594   8.002   6.623   6.731  0.1216 -0.4266  1.4567
 8495TIP3   OH251595   5.359   4.279   7.578  0.4133  0.1611  0.1382
 8495TIP3    H151596   5.306   4.359   7.588  0.8407  0.6389 -1.2013
 8495TIP3    H251597   5.357   4.238   7.665  0.0104  1.5178  0.8020
 8496TIP3   OH251598   5.171   6.673   6.707 -0.0019 -0.1197 -0.1035
 8496TIP3    H151599   5.197   6.599   6.651 -2.7664  1.0236 -3.1906
 8496TIP3    H251600   5.246   6.685   6.766  3.4422 -1.1939 -3.8230
 8497TIP3   OH251601   7.222   2.369   1.631  0.4605  0.6129 -0.3214
 8497TIP3    H151602   7.221   2.373   1.535 -0.6674  1.3558 -0.2943
 8497TIP3    H251603   7.180   2.286   1.652 -1.2534  1.3915 -0.4678
 8498TIP3   OH251604   6.742   7.221   0.547  0.4216  0.6025 -0.4483
 8498TIP3    H151605   6.705   7.155   0.606 -3.4289  1.3824 -1.7412
 8498TIP3    H251606   6.798   7.171   0.488  1.4049 -0.7216  1.4794
 8499TIP3   OH251607   7.845   5.181   0.021 -0.0256  0.0539  0.1115
 8499TIP3    H151608   7.805   5.199   0.106 -0.9896 -2.1532  0.1708
 8499TIP3    H251609   7.802   5.242  -0.039 -1.5137 -0.3939  0.6876
 8500TIP3   OH251610   2.656   5.213   1.422 -0.3671 -0.6759  0.4239
 8500TIP3    H151611   2.640   5.301   1.455 -0.2056 -1.0177  1.4318
 8500TIP3    H251612   2.578   5.192   1.370  0.1869  0.5691 -0.9690
 8501TIP3   OH251613   0.532   6.648   0.995  0.3520  0.4141 -0.3947
 8501TIP3    H151614   0.561   6.601   0.917  0.0925 -1.4982  0.5837
 8501TIP3    H251615   0.485   6.724   0.962 -0.3458 -0.7135 -2.1175
 8502TIP3   OH251616   1.113   2.711   0.896 -0.1660  0.0909 -0.0885
 8502TIP3    H151617   1.031   2.719   0.847  0.1506 -0.2453 -0.6736
 8502TIP3    H251618   1.143   2.622   0.879  0.1922  0.1297  0.3299
 8503TIP3   OH251619   3.532   3.614   0.948 -0.8384  0.0037 -0.1736
 8503TIP3    H151620   3.546   3.697   0.993  5.0479  0.1927 -1.5340
 8503TIP3    H251621   3.564   3.629   0.859 -1.1189 -3.2822 -0.9576
 8504TIP3   OH251622   6.654   7.487   0.839  0.0808 -0.2327  0.2455
 8504TIP3    H151623   6.743   7.481   0.805  0.5857 -1.1510  1.6498
 8504TIP3    H251624   6.664   7.530   0.925 -1.2536  2.9393 -1.0154
 8505TIP3   OH251625   3.107   1.518   6.388 -0.5305  0.1959 -0.4783
 8505TIP3    H151626   3.200   1.539   6.373 -0.1463 -1.2632 -0.2560
 8505TIP3    H251627   3.074   1.491   6.303 -1.8302  4.2668 -1.4937
 8506TIP3   OH251628   5.969   5.211   0.961 -0.7124 -0.8761 -0.3468
 8506TIP3    H151629   5.977   5.146   1.031 -0.8709 -1.0977 -0.5334
 8506TIP3    H251630   6.059   5.226   0.933 -0.3766  0.9796  1.4930
 8507TIP3   OH251631   2.123   2.259   6.652 -0.4862 -0.0060 -0.7194
 8507TIP3    H151632   2.195   2.196   6.653 -0.9726 -0.5683 -0.8340
 8507TIP3    H251633   2.044   2.206   6.660 -0.8869  0.6156 -0.4582
 8508TIP3   OH251634   4.346   4.129   7.098 -0.0506 -0.0187 -0.2323
 8508TIP3    H151635   4.357   4.125   7.193  1.8860  0.0446 -0.4142
 8508TIP3    H251636   4.283   4.199   7.084  1.8943  2.0934  0.9215
 8509TIP3   OH251637   1.396   2.096   7.315  0.2591  0.1486 -0.1658
 8509TIP3    H151638   1.390   2.165   7.249 -1.4593  1.6442  1.4529
 8509TIP3    H251639   1.345   2.024   7.280 -0.0773  0.6760 -0.7746
 8510TIP3   OH251640   1.764   6.115   1.059 -0.4821  0.8534 -0.1869
 8510TIP3    H151641   1.759   6.206   1.029 -0.9319  0.9359  0.1266
 8510TIP3    H251642   1.857   6.094   1.056 -0.1808  1.8304  1.1991
 8511TIP3   OH251643   8.086   6.888   6.980 -0.3825  0.1898 -0.4958
 8511TIP3    H151644   8.145   6.815   6.999 -0.9414 -0.5924 -1.6456
 8511TIP3    H251645   8.001   6.859   7.011  0.1522  2.4515  3.8711
 8512TIP3   OH251646   2.799   0.299   7.125  0.3828  0.1105 -0.4783
 8512TIP3    H151647   2.866   0.230   7.123  0.7127  0.3164  1.2437
 8512TIP3    H251648   2.716   0.252   7.115  0.5607 -0.6715  1.2376
 8513TIP3   OH251649   4.263   7.348   0.224  0.8389  0.1647  0.2072
 8513TIP3    H151650   4.344   7.310   0.259  0.8886 -1.5251 -1.5423
 8513TIP3    H251651   4.200   7.277   0.228 -0.1001  0.9713  0.0412
 8514TIP3   OH251652   4.627   1.825   7.237  0.1292  0.0158 -0.1948
 8514TIP3    H151653   4.595   1.899   7.186  1.2706  0.7773  0.1462
 8514TIP3    H251654   4.571   1.824   7.315  0.3834  0.8227  0.0142
 8515TIP3   OH251655   4.778   3.562   6.637 -0.1419  0.0140 -0.0724
 8515TIP3    H151656   4.773   3.605   6.551 -1.9728 -0.4769 -0.2438
 8515TIP3    H251657   4.837   3.618   6.688  0.3260  0.7647 -1.3897
 8516TIP3   OH251658   1.707   1.012   7.165  0.4508 -0.0483 -0.0202
 8516TIP3    H151659   1.781   1.071   7.172 -0.1441  0.7041  0.0354
 8516TIP3    H251660   1.632   1.069   7.147 -0.0882 -0.8067 -0.2328
 8517TIP3   OH251661   4.295   1.170   7.013  0.7136  0.6477 -0.7085
 8517TIP3    H151662   4.267   1.228   7.085 -1.2707  0.7906 -1.5289
 8517TIP3    H251663   4.358   1.223   6.963  0.2121  1.4728 -0.4881
 8518TIP3   OH251664   7.329   7.719   0.611 -0.1004 -0.2996 -0.1845
 8518TIP3    H151665   7.383   7.770   0.550  0.8266 -0.3969  0.5223
 8518TIP3    H251666   7.251   7.696   0.560 -0.3622  1.4397 -0.6611
 8519TIP3   OH251667   0.910   8.051   6.777 -0.1078  0.2922  0.1171
 8519TIP3    H151668   0.842   8.066   6.844  0.3593  0.8697  0.4712
 8519TIP3    H251669   0.978   8.002   6.823 -0.8147 -1.4248 -0.5680
 8520TIP3   OH251670   4.104   1.441   1.563  0.0770  0.0814  0.0485
 8520TIP3    H151671   4.012   1.420   1.580  0.2410 -1.7248 -1.0236
 8520TIP3    H251672   4.105   1.470   1.472  0.7194 -1.1424 -0.3530
 8521TIP3   OH251673   0.646   3.932   0.847 -0.2885 -0.1684  0.1584
 8521TIP3    H151674   0.676   3.893   0.929 -0.8752  0.9014  0.9053
 8521TIP3    H251675   0.613   4.018   0.872 -0.3197  0.2510 -1.2347
 8522TIP3   OH251676   6.246   6.841   6.756 -0.1968  0.6007 -0.3455
 8522TIP3    H151677   6.233   6.861   6.664 -0.4262 -1.3960 -0.7941
 8522TIP3    H251678   6.340   6.830   6.766 -0.1950  0.5844 -0.3862
 8523TIP3   OH251679   6.735   5.965   6.283 -0.0003 -0.2189  0.0540
 8523TIP3    H151680   6.798   6.037   6.292 -1.9843  1.4237  2.0676
 8523TIP3    H251681   6.750   5.910   6.360 -1.2455  0.4445  0.8091
 8524TIP3   OH251682   6.529   1.029   6.956  0.2979  0.4078  0.5681
 8524TIP3    H151683   6.476   1.049   6.879  0.1088  1.4321  0.9509
 8524TIP3    H251684   6.603   0.979   6.922  0.9671  2.0421 -0.5014
 8525TIP3   OH251685   6.775   5.945   0.469  0.5190 -0.2273 -0.1218
 8525TIP3    H151686   6.759   5.876   0.404 -0.8211 -0.1871  0.1382
 8525TIP3    H251687   6.688   5.977   0.491  1.0420  0.5839  0.8174
 8526TIP3   OH251688   3.834   3.336   0.277 -0.2834 -0.2657 -0.1704
 8526TIP3    H151689   3.898   3.376   0.219 -0.0936  0.3373  0.4437
 8526TIP3    H251690   3.816   3.251   0.238  3.2068 -1.8398  1.2611
 8527TIP3   OH251691   1.399   7.368   0.240  0.0132 -0.3161  0.5240
 8527TIP3    H151692   1.351   7.304   0.187 -2.1699 -0.3876  2.4204
 8527TIP3    H251693   1.369   7.453   0.208 -0.8629 -0.3494  1.2346
 8528TIP3   OH251694   4.913   5.518   7.731  0.0728 -0.5036 -0.5045
 8528TIP3    H151695   4.834   5.543   7.682 -0.2300  1.8169  1.0174
 8528TIP3    H251696   4.885   5.516   7.822  1.1057 -2.7417 -0.1779
 8529TIP3   OH251697   4.872   1.036   1.382  0.1150  0.4708 -0.3448
 8529TIP3    H151698   4.846   1.033   1.474  2.6765  0.8695  0.4811
 8529TIP3    H251699   4.816   0.972   1.338  0.7778 -1.9284  2.0577
 8530TIP3   OH251700   4.179   5.450   7.004 -0.0398 -0.0111  0.3507
 8530TIP3    H151701   4.197   5.544   7.000  1.7913 -0.2625  1.6560
 8530TIP3    H251702   4.263   5.408   6.982 -0.3710 -1.3202  1.4448
 8531TIP3   OH251703   4.732   1.987   5.767  0.5450  0.2100  0.6793
 8531TIP3    H151704   4.647   1.978   5.810 -0.4005  0.6176 -1.0087
 8531TIP3    H251705   4.772   1.900   5.773 -0.7988 -0.4847 -0.0664
 8532TIP3   OH251706   2.362   0.234   0.785  0.4153  0.6267  0.8691
 8532TIP3    H151707   2.280   0.280   0.801 -0.3962  0.0120 -1.1472
 8532TIP3    H251708   2.430   0.301   0.796 -0.6494  2.1512 -1.0487
 8533TIP3   OH251709   5.605   5.221   0.802 -0.8225  0.2811  0.0774
 8533TIP3    H151710   5.660   5.159   0.849 -1.6737 -0.1073  0.5802
 8533TIP3    H251711   5.655   5.242   0.722 -0.5931 -1.1654 -0.1783
 8534TIP3   OH251712   1.605   7.939   6.880 -0.0352  0.2720 -0.0142
 8534TIP3    H151713   1.541   7.873   6.907  0.5864 -0.9206 -1.3404
 8534TIP3    H251714   1.563   7.984   6.807  0.4016 -0.1505 -0.5354
 8535TIP3   OH251715   2.382   6.738   6.185  0.0380  0.2444 -0.1382
 8535TIP3    H151716   2.387   6.673   6.115 -0.6574  1.1740 -1.0832
 8535TIP3    H251717   2.451   6.801   6.164 -0.6935  0.9567 -0.4658
 8536TIP3   OH251718   8.041   2.267   0.223 -0.8456  0.3656 -0.3421
 8536TIP3    H151719   8.040   2.176   0.195  1.4857  0.2351 -0.2032
 8536TIP3    H251720   8.124   2.277   0.271 -1.3273  2.3983  0.1940
 8537TIP3   OH251721   7.230   6.239   6.020 -0.0965 -0.0901  0.1683
 8537TIP3    H151722   7.267   6.326   6.037  1.6454 -0.3132 -2.0422
 8537TIP3    H251723   7.137   6.256   6.004  0.3716  1.5311 -1.1257
 8538TIP3   OH251724   5.035   0.039   6.606  0.4157  0.4124 -0.4499
 8538TIP3    H151725   5.121  -0.003   6.615  0.4079 -0.3328 -2.9657
 8538TIP3    H251726   4.974  -0.035   6.600 -0.3268  0.9281  0.5227
 8539TIP3   OH251727   4.125   4.765   0.904  0.7157  0.2000  0.9147
 8539TIP3    H151728   4.062   4.821   0.858 -0.1344 -0.5210  1.1723
 8539TIP3    H251729   4.210   4.799   0.878  0.2514  0.2642 -0.6499
 8540TIP3   OH251730   5.975   7.542   7.697  0.7655  0.0917  0.3097
 8540TIP3    H151731   5.974   7.545   7.792 -0.5203 -2.5729  0.4622
 8540TIP3    H251732   5.994   7.451   7.676  0.0790  0.4090 -1.9865
 8541TIP3   OH251733   3.771   5.574   1.345 -0.6053 -0.3332  0.3165
 8541TIP3    H151734   3.801   5.646   1.290  1.9231 -1.7950 -0.3544
 8541TIP3    H251735   3.708   5.527   1.291 -2.1846  1.2052  0.7139
 8542TIP3   OH251736   6.447   6.604   6.448 -0.1466 -0.0971  0.1007
 8542TIP3    H151737   6.496   6.552   6.384  0.2613 -0.3964  0.6449
 8542TIP3    H251738   6.476   6.694   6.431  0.5560 -0.2601  0.3598
 8543TIP3   OH251739   4.567   0.681   7.115 -0.0186  0.7823  0.2185
 8543TIP3    H151740   4.662   0.689   7.117 -0.0737  1.7289 -0.5105
 8543TIP3    H251741   4.548   0.609   7.176  1.1618  0.4881  0.2643
 8544TIP3   OH251742   2.221   1.733   5.800 -0.3193  0.6725  0.1075
 8544TIP3    H151743   2.165   1.695   5.732 -1.0643  3.0247 -0.6728
 8544TIP3    H251744   2.168   1.731   5.879 -0.8471  1.2105 -0.2217
 8545TIP3   OH251745   2.911   2.555   7.564  0.2025 -0.0620 -0.0849
 8545TIP3    H151746   3.003   2.532   7.577 -0.6329 -3.5833  0.7118
 8545TIP3    H251747   2.865   2.471   7.567 -3.1022  1.5981 -0.0522
 8546TIP3   OH251748   3.375   6.023   6.852 -0.0704  0.1270 -0.0457
 8546TIP3    H151749   3.462   6.037   6.890  0.0411 -2.5327  0.9142
 8546TIP3    H251750   3.390   6.024   6.758  0.9466  0.1610  0.1044
 8547TIP3   OH251751   5.877   3.574   7.596  0.3411  0.2241 -0.2163
 8547TIP3    H151752   5.891   3.520   7.518  0.9339  1.0888 -0.7218
 8547TIP3    H251753   5.860   3.662   7.562  0.4881  0.5879  0.6221
 8548TIP3   OH251754   1.272   0.775   7.899 -0.2678 -0.7693 -0.0207
 8548TIP3    H151755   1.214   0.734   7.963 -1.0777 -0.5620 -0.6235
 8548TIP3    H251756   1.327   0.703   7.867 -0.7441 -1.1204 -0.0545
 8549TIP3   OH251757   1.250   6.162   1.255  0.6902 -0.2987  0.2324
 8549TIP3    H151758   1.327   6.207   1.221 -0.1390  2.2381  1.4638
 8549TIP3    H251759   1.209   6.123   1.178  2.1869 -0.1135 -0.7008
 8550TIP3   OH251760   7.294   0.991   5.870  0.1812 -0.2290 -0.4154
 8550TIP3    H151761   7.335   0.922   5.923 -0.4622  0.1514  0.6139
 8550TIP3    H251762   7.235   0.945   5.812 -1.7243 -0.4815  1.5951
 8551TIP3   OH251763   0.678   0.134   1.200 -0.5969  0.4431 -0.0748
 8551TIP3    H151764   0.604   0.154   1.142  1.5394  0.5060 -3.0249
 8551TIP3    H251765   0.661   0.045   1.231 -1.6409  0.2222 -1.1861
 8552TIP3   OH251766   3.936   2.816   0.329  0.7730  0.2198  0.4874
 8552TIP3    H151767   3.983   2.896   0.306 -0.5944  1.1529  0.8198
 8552TIP3    H251768   3.957   2.801   0.421  0.6374  0.4676  0.5577
 8553TIP3   OH251769   7.757   4.275   7.163 -0.0316  0.1492  0.1801
 8553TIP3    H151770   7.668   4.307   7.175 -0.4177 -0.2961 -1.2435
 8553TIP3    H251771   7.748   4.180   7.156  0.7538 -0.0435  1.4845
 8554TIP3   OH251772   4.137   0.433   7.746  0.8830  0.4695  0.1858
 8554TIP3    H151773   4.091   0.510   7.714  0.7864 -0.2812 -1.5745
 8554TIP3    H251774   4.071   0.363   7.743  1.9526 -0.5479 -2.0718
 8555TIP3   OH251775   3.301   6.618   7.185  0.0843  0.6182  0.2672
 8555TIP3    H151776   3.283   6.702   7.228  0.8292  1.2264 -0.6008
 8555TIP3    H251777   3.302   6.638   7.092 -1.5164 -0.6973 -0.0921
 8556TIP3   OH251778   6.445   4.845   7.898 -0.1064  0.4857 -0.4011
 8556TIP3    H151779   6.511   4.798   7.950 -0.1188  2.1763  1.2170
 8556TIP3    H251780   6.496   4.901   7.840 -0.0070  2.6783  1.6660
 8557TIP3   OH251781   7.400   3.937   7.859 -0.0203 -0.0660  0.4838
 8557TIP3    H151782   7.350   3.872   7.908  0.5129 -0.6677  0.2444
 8557TIP3    H251783   7.395   3.907   7.768 -2.6104  2.0550 -0.1906
 8558TIP3   OH251784   1.983   2.613   1.121 -0.3152 -0.3599  0.3526
 8558TIP3    H151785   2.051   2.549   1.141  0.3014 -0.0744 -0.7814
 8558TIP3    H251786   1.927   2.571   1.056 -0.3789 -0.0451  0.2001
 8559TIP3   OH251787   7.520   1.434   0.553 -0.4932  0.4556 -0.6698
 8559TIP3    H151788   7.582   1.381   0.603  0.4697  2.9819  1.0357
 8559TIP3    H251789   7.519   1.395   0.466  2.5694 -0.4546 -0.4058
 8560TIP3   OH251790   0.515   7.010   7.812 -0.1602 -0.0177  0.2016
 8560TIP3    H151791   0.540   7.093   7.771 -2.3628 -0.1321 -1.6066
 8560TIP3    H251792   0.517   7.027   7.906 -0.6921  2.1372 -0.1324
 8561TIP3   OH251793   7.306   6.835   0.130  0.0003 -0.4111  0.3180
 8561TIP3    H151794   7.351   6.753   0.149 -0.3315 -1.1744 -1.8353
 8561TIP3    H251795   7.372   6.890   0.087 -0.2389 -0.2277  0.1797
 8562TIP3   OH251796   1.023   7.510   6.504 -0.0309  0.1703  0.2802
 8562TIP3    H151797   1.008   7.600   6.476 -0.3512 -0.2800 -1.1038
 8562TIP3    H251798   0.946   7.462   6.471  0.5633 -0.7524  0.2038
 8563TIP3   OH251799   2.779   8.034   1.654  0.9705 -0.2581  0.5023
 8563TIP3    H151800   2.794   7.942   1.676  1.1431 -1.1486 -2.8076
 8563TIP3    H251801   2.690   8.035   1.616  0.8854  0.9885  0.7057
 8564TIP3   OH251802   7.242   3.019   5.671 -0.0417 -0.0462  0.4849
 8564TIP3    H151803   7.157   3.053   5.643 -0.7172 -0.9193  1.3873
 8564TIP3    H251804   7.254   2.940   5.619  0.9382  0.8735 -0.7177
 8565TIP3   OH251805   3.315   0.955   1.666 -0.1779  0.2602  0.2834
 8565TIP3    H151806   3.347   1.037   1.705 -0.6393  0.7354 -0.3133
 8565TIP3    H251807   3.360   0.886   1.714 -0.3651  0.8422  1.3184
 8566TIP3   OH251808   5.350   4.088   7.024  0.7806 -0.2422 -0.8275
 8566TIP3    H151809   5.395   4.039   7.093 -0.9849 -0.0689  0.5315
 8566TIP3    H251810   5.277   4.032   6.999 -1.7596  1.8223  1.3114
 8567TIP3   OH251811   6.659   1.393   6.179  0.6923 -0.5744  0.8309
 8567TIP3    H151812   6.638   1.313   6.130  0.7544  0.2087 -0.5254
 8567TIP3    H251813   6.711   1.445   6.118  1.3727  0.1451  2.0054
 8568TIP3   OH251814   6.688   6.071   7.928  0.1121 -0.6431 -0.1091
 8568TIP3    H151815   6.639   6.008   7.876  0.9055 -1.0590 -0.3732
 8568TIP3    H251816   6.767   6.024   7.955  0.5149  0.1063  0.0430
 8569TIP3   OH251817   5.549   3.134   1.164 -0.2761  0.6538  0.5866
 8569TIP3    H151818   5.517   3.218   1.131 -0.3029  0.3269 -0.2235
 8569TIP3    H251819   5.513   3.129   1.253  0.1660  1.7359  0.8495
 8570TIP3   OH251820   0.921   7.082   0.692  0.2464 -0.2576  0.4919
 8570TIP3    H151821   1.006   7.080   0.647 -0.3175 -0.5943 -0.5880
 8570TIP3    H251822   0.908   6.992   0.722 -0.9059 -0.8785 -1.6677
 8571TIP3   OH251823   2.503   0.870   7.656  0.6929  0.2488 -0.3506
 8571TIP3    H151824   2.542   0.785   7.679 -3.2827 -0.9738  3.3508
 8571TIP3    H251825   2.464   0.856   7.570 -1.2642 -2.4458  0.8189
 8572TIP3   OH251826   2.482   6.982   7.822 -0.4513 -0.4919 -0.8530
 8572TIP3    H151827   2.389   6.969   7.843 -0.0262  0.1255  1.6406
 8572TIP3    H251828   2.493   6.937   7.738 -2.7794 -1.3898 -0.7696
 8573TIP3   OH251829   0.565   0.541   1.036 -0.2381  0.3515 -0.6631
 8573TIP3    H151830   0.521   0.583   1.110 -0.8006  1.9603 -1.8682
 8573TIP3    H251831   0.556   0.603   0.964  2.3605 -0.0991 -1.4782
 8574TIP3   OH251832   6.345   0.193   5.682 -0.4328 -0.3734  0.1096
 8574TIP3    H151833   6.372   0.234   5.600 -2.2457 -0.9968 -0.8537
 8574TIP3    H251834   6.395   0.111   5.686  0.1997  0.0037  0.0085
 8575TIP3   OH251835   4.488   2.516   7.393  0.0766 -0.0596 -0.7607
 8575TIP3    H151836   4.451   2.434   7.361 -1.1251 -0.0263  0.4958
 8575TIP3    H251837   4.571   2.491   7.434 -0.3062 -0.6501 -0.3429
 8576TIP3   OH251838   1.873   4.343   5.866 -0.0146  0.3430 -0.7030
 8576TIP3    H151839   1.862   4.257   5.825 -0.7537 -1.2588  2.5251
 8576TIP3    H251840   1.785   4.381   5.864 -0.3365 -0.2888  0.3885
 8577TIP3   OH251841   1.934   3.123   0.196 -0.4445  0.1587  0.5262
 8577TIP3    H151842   2.029   3.118   0.195 -0.4791 -0.8031 -0.0043
 8577TIP3    H251843   1.906   3.031   0.202 -1.3298  0.1876 -1.8369
 8578TIP3   OH251844   4.136   4.481   0.887 -0.0510 -0.3134  0.6758
 8578TIP3    H151845   4.118   4.575   0.893 -0.1688 -0.3525  1.0032
 8578TIP3    H251846   4.227   4.475   0.859 -0.6974 -0.1098 -1.6055
 8579TIP3   OH251847   3.695   1.096   1.439 -0.3821 -0.1319  0.8045
 8579TIP3    H151848   3.787   1.119   1.424 -0.1067 -0.9965  1.1171
 8579TIP3    H251849   3.683   1.109   1.533 -0.4726 -0.3887  0.8284
 8580TIP3   OH251850   3.035   2.095   1.004 -0.3327 -0.3460  0.1999
 8580TIP3    H151851   2.941   2.106   0.996 -0.5005 -1.4940  0.4530
 8580TIP3    H251852   3.054   2.113   1.097 -0.4708 -1.1421  0.3941
 8581TIP3   OH251853   3.507   8.094   0.002 -0.4453 -0.3156 -0.1573
 8581TIP3    H151854   3.459   8.067  -0.076  1.3756 -1.3331 -0.9778
 8581TIP3    H251855   3.576   8.029   0.012  0.0649  0.4334  1.6618
 8582TIP3   OH251856   1.879   1.113   1.913 -0.2930 -0.2528 -0.4275
 8582TIP3    H151857   1.918   1.198   1.935  0.9891 -1.0512  0.6061
 8582TIP3    H251858   1.814   1.132   1.846 -0.1616  1.5614 -0.0815
 8583TIP3   OH251859   2.713   4.480   0.060 -0.0263 -0.0502  0.0335
 8583TIP3    H151860   2.655   4.418   0.104  0.4547  0.4610  1.4284
 8583TIP3    H251861   2.716   4.450  -0.031 -0.8493 -1.2738  0.3909
 8584TIP3   OH251862   6.412   1.102   0.576 -0.3170 -0.0874 -0.2794
 8584TIP3    H151863   6.456   1.114   0.491  0.7263  0.9943  0.3846
 8584TIP3    H251864   6.366   1.018   0.567  1.8009 -1.2528 -1.0725
 8585TIP3   OH251865   4.700   7.184   6.890 -0.2949 -0.4421 -0.6375
 8585TIP3    H151866   4.719   7.091   6.884 -1.7739 -0.8769  0.6621
 8585TIP3    H251867   4.665   7.196   6.979 -0.0983  1.3579 -0.7486
 8586TIP3   OH251868   1.587   3.204   7.560  0.1827  0.5090  0.2879
 8586TIP3    H151869   1.563   3.260   7.487 -0.8753  0.3988  0.5358
 8586TIP3    H251870   1.640   3.260   7.617  1.5128  0.4320 -0.8155
 8587TIP3   OH251871   2.167   7.500   0.394  0.5659  0.0446 -0.0901
 8587TIP3    H151872   2.248   7.549   0.385  0.8943 -0.4344  0.1970
 8587TIP3    H251873   2.195   7.412   0.419  0.1555 -0.8872 -2.5512
 8588TIP3   OH251874   2.522   7.447   0.108  0.0992 -1.3269  0.0979
 8588TIP3    H151875   2.427   7.440   0.103 -0.2314  1.6161  0.9192
 8588TIP3    H251876   2.552   7.356   0.107 -2.6707 -2.3382 -0.3582
 8589TIP3   OH251877   5.779   7.152   5.937  0.5585 -0.3163 -0.1633
 8589TIP3    H151878   5.738   7.195   5.862 -0.4264  1.8326  1.4878
 8589TIP3    H251879   5.871   7.147   5.913  0.8354  3.1095 -0.4366
 8590TIP3   OH251880   5.662   6.031   1.115  0.4135 -0.3995 -0.3849
 8590TIP3    H151881   5.643   5.941   1.089 -2.6274 -0.6756  2.1916
 8590TIP3    H251882   5.725   6.023   1.187 -0.2880 -0.5525  0.2240
 8591TIP3   OH251883   2.731   6.096   1.014  0.6957  0.2997 -0.2003
 8591TIP3    H151884   2.791   6.156   0.969 -1.8763  1.6988 -2.0087
 8591TIP3    H251885   2.665   6.153   1.053 -0.6441 -1.2654 -0.0740
 8592TIP3   OH251886   5.545   5.938   5.461  0.5747  0.0308  0.2305
 8592TIP3    H151887   5.616   5.877   5.477  0.6760  0.2627  0.6714
 8592TIP3    H251888   5.509   5.911   5.376 -0.2464 -1.4678  1.0157
 8593TIP3   OH251889   7.714   3.186   0.663 -0.6303  0.6249 -0.0685
 8593TIP3    H151890   7.647   3.239   0.620  0.9527  2.1124 -0.8305
 8593TIP3    H251891   7.790   3.244   0.670  0.2418 -0.6341  1.7811
 8594TIP3   OH251892   1.080   0.425   7.137  0.4020  0.3067 -0.4012
 8594TIP3    H151893   1.158   0.371   7.127  0.8901  0.6419  1.2715
 8594TIP3    H251894   1.061   0.422   7.230 -3.2241 -1.9590 -1.0321
 8595TIP3   OH251895   6.133   0.301   0.970 -0.4393 -0.4072 -0.5459
 8595TIP3    H151896   6.198   0.295   1.040 -0.5411 -0.4935 -0.4582
 8595TIP3    H251897   6.158   0.379   0.921 -0.3436 -0.3687 -0.4376
 8596TIP3   OH251898   2.196   1.524   1.808  0.0144 -0.4952 -0.9129
 8596TIP3    H151899   2.288   1.553   1.811 -0.5879  1.5296  1.3617
 8596TIP3    H251900   2.146   1.600   1.837 -2.5587 -1.1423 -3.2386
 8597TIP3   OH251901   3.865   7.570   6.318 -0.8596 -0.3397  0.5691
 8597TIP3    H151902   3.829   7.536   6.401 -1.8975  0.4772  0.4766
 8597TIP3    H251903   3.824   7.516   6.251  0.1386 -1.1354  0.5806
 8598TIP3   OH251904   5.670   5.889   6.472 -0.5083  0.1164  0.0342
 8598TIP3    H151905   5.715   5.812   6.507  0.6705  0.9776  0.4589
 8598TIP3    H251906   5.721   5.912   6.394 -0.6363  0.6809  0.1160
 8599TIP3   OH251907   2.763   2.907   7.917  0.6103 -0.9935  0.0031
 8599TIP3    H151908   2.761   2.847   7.992  3.5318 -2.7797 -1.1757
 8599TIP3    H251909   2.761   2.850   7.840 -0.4087  0.6810 -1.2941
 8600TIP3   OH251910   4.274   4.191   7.364  0.8556  0.2593 -0.0481
 8600TIP3    H151911   4.264   4.231   7.450 -0.6278  2.0229 -0.9828
 8600TIP3    H251912   4.235   4.104   7.373 -0.3822  0.8777  0.7489
 8601TIP3   OH251913   4.413   0.760   7.794 -0.2149  0.2314 -0.2801
 8601TIP3    H151914   4.338   0.749   7.851 -1.2784  0.4362 -1.5943
 8601TIP3    H251915   4.377   0.761   7.705  1.5190 -1.7392 -1.1140
 8602TIP3   OH251916   6.418   5.423   0.742 -0.2149 -0.8214  0.0650
 8602TIP3    H151917   6.441   5.365   0.670  1.3956 -1.6924  1.1954
 8602TIP3    H251918   6.398   5.507   0.701  4.3569 -0.1203 -1.3052
 8603TIP3   OH251919   5.392   1.266   1.262 -0.5224 -0.5039  0.0079
 8603TIP3    H151920   5.449   1.264   1.184 -1.7733 -0.5206 -0.9395
 8603TIP3    H251921   5.337   1.344   1.249 -1.6615 -1.2570  0.1976
 8604TIP3   OH251922   2.538   6.129   0.065  0.6454 -0.2759  0.0237
 8604TIP3    H151923   2.518   6.056   0.124  1.5610 -0.6086 -0.0683
 8604TIP3    H251924   2.633   6.139   0.070  0.4444  1.7091  0.9729
 8605TIP3   OH251925   2.090   3.880   6.689 -0.0524  0.3525 -0.2207
 8605TIP3    H151926   2.040   3.805   6.658 -1.7270  0.3704  2.1975
 8605TIP3    H251927   2.181   3.849   6.690 -0.5342 -1.1704 -0.6006
 8606TIP3   OH251928   1.025   7.878   7.182 -0.1719  0.8466  0.3450
 8606TIP3    H151929   0.961   7.921   7.238 -1.2166 -0.7896  0.4661
 8606TIP3    H251930   1.072   7.818   7.240  0.5576  1.0417 -0.0236
 8607TIP3   OH251931   4.728   0.942   0.880  0.3659 -0.3653  0.0071
 8607TIP3    H151932   4.693   0.902   0.800 -0.5035 -1.2452  0.8078
 8607TIP3    H251933   4.685   1.027   0.885 -2.6478 -1.8233  1.5215
 8608TIP3   OH251934   1.774   0.017   6.317 -0.0770 -0.5546  0.2271
 8608TIP3    H151935   1.860   0.043   6.351 -0.2394  1.8031 -0.9926
 8608TIP3    H251936   1.790  -0.066   6.272  1.5421 -0.2211  0.1282
 8609TIP3   OH251937   4.403   0.281   1.957  0.0983  0.6023  0.2360
 8609TIP3    H151938   4.323   0.255   2.002  0.0423 -1.0560 -0.7275
 8609TIP3    H251939   4.472   0.267   2.022 -0.2732  1.1096  0.7553
 8610TIP3   OH251940   5.978   0.626   1.612 -0.0263  0.5016 -0.3401
 8610TIP3    H151941   6.044   0.595   1.549 -1.1935 -0.0156 -1.3549
 8610TIP3    H251942   6.029   0.668   1.681  1.4939 -1.5456 -0.1213
 8611TIP3   OH251943   2.325   0.443   0.186 -0.5405  0.8163  0.3763
 8611TIP3    H151944   2.317   0.539   0.183 -1.2959  0.7604  0.4884
 8611TIP3    H251945   2.419   0.427   0.180 -0.3493  1.5979  1.0454
 8612TIP3   OH251946   3.857   7.526   6.696  0.2017 -0.3899 -1.1067
 8612TIP3    H151947   3.910   7.517   6.775 -1.4248  1.1342  0.2557
 8612TIP3    H251948   3.829   7.437   6.676 -0.6609 -0.6853  1.0589
 8613TIP3   OH251949   0.420   5.300   5.112  0.2443 -0.6630  0.0624
 8613TIP3    H151950   0.434   5.349   5.193 -1.2160 -0.5073  0.2480
 8613TIP3    H251951   0.353   5.235   5.134 -1.5629  0.5732 -1.4371
 8614TIP3   OH251952   2.381   2.591   6.495 -1.0302  0.4167  0.8537
 8614TIP3    H151953   2.453   2.654   6.498 -0.2749 -0.1533 -2.0375
 8614TIP3    H251954   2.385   2.547   6.580  2.3286  0.1301  0.7047
 8615TIP3   OH251955   4.146   4.936   1.294  0.5016  0.2477  0.3160
 8615TIP3    H151956   4.192   5.017   1.318  2.5250 -0.8261  0.2986
 8615TIP3    H251957   4.187   4.868   1.348  0.3716 -1.1112 -1.1975
 8616TIP3   OH251958   2.011   6.465   1.130  0.2616  0.4958  0.3937
 8616TIP3    H151959   1.947   6.517   1.083  0.6824  1.2943  0.6867
 8616TIP3    H251960   2.084   6.525   1.147  1.5346 -0.6512 -0.8071
 8617TIP3   OH251961   2.522   6.915   6.019  0.1750 -0.1959 -0.2206
 8617TIP3    H151962   2.502   6.999   6.059  0.4330  1.0680 -2.6105
 8617TIP3    H251963   2.600   6.930   5.967 -1.5647 -0.9388 -3.3194
 8618TIP3   OH251964   7.578   3.779   6.767  0.2643  0.2317 -0.0239
 8618TIP3    H151965   7.489   3.807   6.746  0.2658 -0.2795 -0.7455
 8618TIP3    H251966   7.567   3.693   6.807  0.3375  0.7806  1.2480
 8619TIP3   OH251967   2.597   1.887   5.435 -0.3456 -0.3619 -0.3878
 8619TIP3    H151968   2.651   1.817   5.471  1.0674  0.7687 -0.2142
 8619TIP3    H251969   2.657   1.960   5.424 -2.0474  1.3009  0.7672
 8620TIP3   OH251970   5.233   0.635   0.760  0.5699 -0.6725  0.2472
 8620TIP3    H151971   5.193   0.604   0.841  1.2696  1.3531  1.4386
 8620TIP3    H251972   5.304   0.572   0.743  0.4954 -1.0613  1.2715
 8621TIP3   OH251973   2.583   0.881   6.422 -0.2159  0.5709  0.2462
 8621TIP3    H151974   2.611   0.795   6.390 -2.4876  0.4702 -1.7507
 8621TIP3    H251975   2.524   0.861   6.496 -2.0684  0.2199 -1.2451
 8622TIP3   OH251976   5.715   6.196   1.646  0.0560 -0.0068 -0.1192
 8622TIP3    H151977   5.682   6.111   1.676  0.5527 -0.3790 -0.6083
 8622TIP3    H251978   5.662   6.260   1.693  0.6425 -0.5650  1.3764
 8623TIP3   OH251979   7.404   3.545   7.577  0.7107  0.3957 -0.5835
 8623TIP3    H151980   7.471   3.482   7.551  1.8978  0.7300  1.4453
 8623TIP3    H251981   7.393   3.531   7.671  0.4099  2.6346 -0.2245
 8624TIP3   OH251982   2.788   2.883   6.336 -0.1083 -0.0630 -0.0745
 8624TIP3    H151983   2.883   2.883   6.324 -0.3779 -1.3259 -3.0338
 8624TIP3    H251984   2.753   2.870   6.248 -3.0412 -0.0904  0.9976
 8625TIP3   OH251985   2.329   4.843   6.428 -0.1672 -0.1098  0.4911
 8625TIP3    H151986   2.299   4.896   6.355 -1.0293 -1.6197 -0.3046
 8625TIP3    H251987   2.424   4.841   6.419 -0.2679 -0.3401 -0.6714
 8626TIP3   OH251988   0.507   4.254   7.049 -0.7070 -0.1146 -0.0638
 8626TIP3    H151989   0.583   4.310   7.062 -0.7056  0.0527 -0.7577
 8626TIP3    H251990   0.432   4.313   7.055 -0.6945  0.0105 -1.0150
 8627TIP3   OH251991   1.299   6.712   0.706 -0.5514  0.3025 -0.0749
 8627TIP3    H151992   1.248   6.639   0.671  0.5673  0.1701 -1.5062
 8627TIP3    H251993   1.387   6.700   0.670 -0.2314  2.1210  0.0011
 8628TIP3   OH251994   4.853   6.368   5.852 -0.0849  0.3172 -0.2795
 8628TIP3    H151995   4.865   6.298   5.788  0.3139  0.2507 -0.1365
 8628TIP3    H251996   4.829   6.445   5.800 -1.7943 -0.2152 -0.3326
 8629TIP3   OH251997   4.075   1.690   1.019 -0.0314  0.2474  0.2942
 8629TIP3    H151998   3.994   1.651   0.989 -0.7698  1.6147  0.4139
 8629TIP3    H251999   4.106   1.742   0.945 -0.1066  0.9710  0.7509
 8630TIP3   OH252000   3.142   1.143   1.027  0.4782 -0.1236 -0.4070
 8630TIP3    H152001   3.216   1.156   1.087  1.0454 -1.2690 -0.8177
 8630TIP3    H252002   3.160   1.059   0.986 -1.8026 -1.1389  0.5126
 8631TIP3   OH252003   3.885   1.279   0.187 -0.0653 -0.6377 -0.0004
 8631TIP3    H152004   3.803   1.318   0.217  0.1244 -0.2053 -0.0415
 8631TIP3    H252005   3.880   1.282   0.091 -0.1562 -0.9392 -0.0067
 8632TIP3   OH252006   5.928   5.615   2.774 -0.0969  0.5651 -0.9042
 8632TIP3    H152007   5.875   5.694   2.760  1.7063  2.0581  0.2868
 8632TIP3    H252008   5.989   5.639   2.844  0.2090 -2.0652 -0.1705
 8633TIP3   OH252009   2.594   1.613   7.861 -0.2207  0.2936  0.2826
 8633TIP3    H152010   2.645   1.561   7.924  0.2027 -0.0872 -0.3624
 8633TIP3    H252011   2.638   1.599   7.777 -1.1301  0.3185 -0.2116
 8634TIP3   OH252012   1.450   0.028   0.662 -0.2235 -0.5600 -0.0484
 8634TIP3    H152013   1.415  -0.024   0.590  0.0292  1.2183 -1.5175
 8634TIP3    H252014   1.491   0.104   0.620  1.1844 -0.1646  1.8985
 8635TIP3   OH252015   4.301   3.329   6.147 -0.2996 -0.1829 -0.7541
 8635TIP3    H152016   4.313   3.392   6.077 -0.0163  0.8878  0.2293
 8635TIP3    H252017   4.378   3.272   6.142  0.6686  1.0352 -0.1706
 8636TIP3   OH252018   6.641   0.807   7.288 -0.0180 -0.2233  0.9172
 8636TIP3    H152019   6.573   0.869   7.315  0.1057 -0.3048  1.4287
 8636TIP3    H252020   6.702   0.860   7.236 -1.8747 -0.6878 -1.9845
 8637TIP3   OH252021   7.490   0.385   5.931 -0.7499 -0.1134 -0.1649
 8637TIP3    H152022   7.474   0.459   5.874 -0.8608 -0.4354 -0.5580
 8637TIP3    H252023   7.549   0.418   5.998 -0.1957  0.1318 -0.7682
 8638TIP3   OH252024   2.560   5.786   1.808  0.7839 -0.1714 -0.4862
 8638TIP3    H152025   2.559   5.804   1.902 -0.4597  0.0504 -0.5338
 8638TIP3    H252026   2.563   5.691   1.801 -0.5077 -0.2518 -0.2007
 8639TIP3   OH252027   7.183   4.378   0.902 -0.1927 -0.3003  0.4692
 8639TIP3    H152028   7.124   4.383   0.827 -1.2236  0.0037  1.2654
 8639TIP3    H252029   7.189   4.285   0.922  0.6973 -0.4465 -0.4444
 8640TIP3   OH252030   2.809   2.472   0.472  0.1654 -0.0938  0.0158
 8640TIP3    H152031   2.865   2.395   0.477  0.4003  0.0384 -0.4792
 8640TIP3    H252032   2.746   2.462   0.544 -2.5133 -2.8305 -2.4502
 8641TIP3   OH252033   5.083   6.216   2.444 -0.1922 -0.0666 -0.4725
 8641TIP3    H152034   5.061   6.188   2.355 -0.0768 -1.3863 -0.1130
 8641TIP3    H252035   5.097   6.134   2.491  1.3378  0.6282  0.3563
 8642TIP3   OH252036   3.475   0.470   7.553  0.1799  0.2456  0.1963
 8642TIP3    H152037   3.566   0.497   7.540 -0.3654  1.2947 -1.8894
 8642TIP3    H252038   3.430   0.547   7.586 -0.9991  1.6705 -4.0505
 8643TIP3   OH252039   0.540   1.318   1.392  0.0862 -0.4647  0.6758
 8643TIP3    H152040   0.578   1.265   1.323  0.9383 -1.8701  2.1405
 8643TIP3    H252041   0.465   1.268   1.423 -1.3131  0.9470 -0.2898
 8644TIP3   OH252042   6.747   1.623   5.999  0.0328  0.6979  0.1921
 8644TIP3    H152043   6.820   1.645   6.057  0.8702  0.2888 -0.6704
 8644TIP3    H252044   6.788   1.606   5.914 -1.1325  1.0551 -0.4720
 8645TIP3   OH252045   5.883   5.267   0.320 -0.2751  0.0278  0.0466
 8645TIP3    H152046   5.906   5.307   0.236 -0.5794  1.4628  0.6209
 8645TIP3    H252047   5.887   5.173   0.303 -2.7951  0.2234 -2.2664
 8646TIP3   OH252048   0.414   6.100   6.817 -0.6660  0.0177 -0.3334
 8646TIP3    H152049   0.368   6.135   6.741 -2.4989 -0.7237  0.3797
 8646TIP3    H252050   0.402   6.166   6.885  1.0381  0.7177 -0.6479
 8647TIP3   OH252051   7.291   2.473   6.146 -0.4787  0.1783 -0.4444
 8647TIP3    H152052   7.253   2.490   6.233  1.1557 -2.6321  0.9717
 8647TIP3    H252053   7.248   2.393   6.116  2.0119 -1.3966 -0.1320
 8648TIP3   OH252054   3.502   0.418   0.826 -0.2965 -0.0701 -0.1858
 8648TIP3    H152055   3.502   0.377   0.913 -2.0318 -2.2015 -1.0975
 8648TIP3    H252056   3.567   0.368   0.776 -1.9806 -1.4736 -1.1230
 8649TIP3   OH252057   5.018   7.881   7.893  0.0478 -0.1382 -0.0101
 8649TIP3    H152058   5.080   7.848   7.958  1.6503  0.5583 -1.1212
 8649TIP3    H252059   4.983   7.961   7.932 -1.0885 -1.1289  1.1147
 8650TIP3   OH252060   7.272   2.172   7.209  0.0735 -0.0572 -0.1247
 8650TIP3    H152061   7.212   2.231   7.256  2.0045  1.6728  0.2989
 8650TIP3    H252062   7.225   2.089   7.206 -1.4421  0.6175  2.0965
 8651TIP3   OH252063   4.745   0.526   0.682  0.1204  0.3412  0.4637
 8651TIP3    H152064   4.817   0.564   0.632 -1.6457  0.8390 -1.8395
 8651TIP3    H252065   4.776   0.438   0.705  1.3547  0.4432 -0.6938
 8652TIP3   OH252066   0.490   2.193   7.115  0.9164  0.1857 -0.8792
 8652TIP3    H152067   0.576   2.162   7.089  1.4092  0.3575  0.4568
 8652TIP3    H252068   0.496   2.204   7.210 -0.7707 -0.4153 -0.6644
 8653TIP3   OH252069   0.303   1.240   6.232  0.1001  0.0762  0.3173
 8653TIP3    H152070   0.286   1.277   6.145  0.9349 -1.7703 -0.6686
 8653TIP3    H252071   0.216   1.233   6.272 -0.2488  1.3291 -0.1808
 8654TIP3   OH252072   2.412   4.454   7.054 -0.1349 -0.7263 -0.4692
 8654TIP3    H152073   2.491   4.507   7.053 -1.1128  0.8409  0.6271
 8654TIP3    H252074   2.384   4.453   7.145 -1.6836 -0.7307 -0.9022
 8655TIP3   OH252075   3.530   5.558   6.811 -0.1635 -0.2136  0.8345
 8655TIP3    H152076   3.485   5.494   6.866  1.1985 -1.2482  0.7863
 8655TIP3    H252077   3.572   5.506   6.742 -1.2638  0.9774 -0.8314
 8656TIP3   OH252078   8.052   4.385   0.923  0.4393 -0.3344 -0.1524
 8656TIP3    H152079   8.132   4.385   0.976  0.8140 -0.1450 -0.7088
 8656TIP3    H252080   8.050   4.473   0.884 -0.6970  0.1046  0.8209
 8657TIP3   OH252081   5.124   7.936   6.906  0.2554  0.1135 -0.1520
 8657TIP3    H152082   5.163   7.849   6.918 -0.9839 -0.2243  1.7819
 8657TIP3    H252083   5.030   7.920   6.901  0.0938  1.2413 -1.3506
 8658TIP3   OH252084   8.049   5.060   7.484 -0.1484  0.7977 -0.3840
 8658TIP3    H152085   8.069   4.982   7.432  0.1434  1.3542 -1.1276
 8658TIP3    H252086   7.996   5.114   7.426  2.5349  2.7208 -1.2298
 8659TIP3   OH252087   5.847   5.458   0.981 -0.3801  0.3044  0.2686
 8659TIP3    H152088   5.912   5.387   0.975  1.6157  1.9306  1.4598
 8659TIP3    H252089   5.763   5.413   0.973  0.7886 -2.2166  0.9309
 8660TIP3   OH252090   3.623   2.312   1.952 -0.0866  0.2664 -0.3123
 8660TIP3    H152091   3.597   2.356   2.033  0.6296 -1.3080  0.8404
 8660TIP3    H252092   3.542   2.276   1.917 -0.2365 -0.0911  0.3836
 8661TIP3   OH252093   5.725   4.869   7.740 -0.0599 -0.2125 -0.2949
 8661TIP3    H152094   5.795   4.817   7.780 -1.5518 -3.1991 -1.3022
 8661TIP3    H252095   5.679   4.808   7.682 -3.7733  1.4369  0.6008
 8662TIP3   OH252096   0.056   0.549   6.846 -0.0826 -0.5265 -0.5673
 8662TIP3    H152097   0.121   0.481   6.864 -1.7183 -1.9691  0.1797
 8662TIP3    H252098   0.015   0.522   6.764 -2.9405 -2.3509  1.2957
 8663TIP3   OH252099   5.578   7.450   6.198 -0.1541 -0.3846 -0.1505
 8663TIP3    H152100   5.495   7.459   6.151 -0.2703 -0.9730 -0.0707
 8663TIP3    H252101   5.645   7.455   6.129 -0.2197  0.6414 -0.1487
 8664TIP3   OH252102   8.086   2.558   0.827  0.0460  0.0327  0.3228
 8664TIP3    H152103   8.067   2.468   0.798  0.0317  0.0988  0.1236
 8664TIP3    H252104   8.004   2.590   0.862  0.2093 -0.2494  0.9781
 8665TIP3   OH252105   4.313   6.539   0.361 -0.5422 -0.0034 -0.5095
 8665TIP3    H152106   4.332   6.519   0.453 -0.5647  0.6107 -0.3646
 8665TIP3    H252107   4.308   6.454   0.318 -2.3946 -0.3996  0.4149
 8666TIP3   OH252108   7.622   3.334   6.636  0.0129  0.0339  0.5460
 8666TIP3    H152109   7.718   3.330   6.642  0.0729 -1.2887 -0.7120
 8666TIP3    H252110   7.592   3.251   6.672 -0.4538 -0.8366 -1.6638
 8667TIP3   OH252111   6.500   6.636   7.100  0.8969 -0.1791  0.2393
 8667TIP3    H152112   6.454   6.557   7.072 -1.0601  0.6422  0.8968
 8667TIP3    H252113   6.542   6.612   7.182  2.9275 -1.3429 -1.0536
 8668TIP3   OH252114   4.921   4.792   1.079 -0.7109 -0.1369 -0.1468
 8668TIP3    H152115   4.987   4.798   1.010  0.2891 -1.9178  0.5672
 8668TIP3    H252116   4.870   4.714   1.057 -1.9737  0.6520 -0.1463
 8669TIP3   OH252117   5.580   7.068   6.778 -0.2681 -0.3967 -0.1360
 8669TIP3    H152118   5.492   7.036   6.796 -0.2853  0.0325  0.5997
 8669TIP3    H252119   5.624   7.066   6.863  0.5594 -0.9903 -0.5688
 8670TIP3   OH252120   6.541   2.986   6.289  0.0779 -0.5306  0.1515
 8670TIP3    H152121   6.473   3.049   6.315 -0.1219 -0.0145 -1.5288
 8670TIP3    H252122   6.623   3.033   6.302 -0.0683  0.1023 -1.0618
 8671TIP3   OH252123   0.162   3.067   2.069  0.2720 -0.2209 -0.2650
 8671TIP3    H152124   0.181   3.114   1.988  0.4249  0.8709  0.3870
 8671TIP3    H252125   0.068   3.082   2.084  0.5578  0.9183  0.5612
 8672TIP3   OH252126   5.867   3.626   0.170  0.0491 -0.3545 -0.2579
 8672TIP3    H152127   5.953   3.666   0.157  0.0018 -0.5905 -1.3999
 8672TIP3    H252128   5.818   3.648   0.091 -0.9846 -0.1520  0.4149
 8673TIP3   OH252129   4.532   7.463   7.308  0.0040 -0.1531  0.0794
 8673TIP3    H152130   4.498   7.545   7.346 -0.8085 -0.4872  0.0970
 8673TIP3    H252131   4.582   7.424   7.379 -0.1042  0.0455  0.2688
 8674TIP3   OH252132   2.508   4.157   1.872  0.0575  0.0705 -0.2525
 8674TIP3    H152133   2.558   4.108   1.938  0.0208  0.3060 -0.0493
 8674TIP3    H252134   2.448   4.091   1.835  1.0288 -0.3895 -1.0279
 8675TIP3   OH252135   3.138   5.416   0.238  0.1366 -0.3781 -0.0580
 8675TIP3    H152136   3.114   5.328   0.269 -0.2119 -0.7866 -1.4304
 8675TIP3    H252137   3.148   5.406   0.143  2.4656  0.5184  0.0146
 8676TIP3   OH252138   6.022   2.001   7.316 -0.7208 -0.0547  0.0726
 8676TIP3    H152139   5.954   1.955   7.366 -1.4795  0.0147 -0.8672
 8676TIP3    H252140   5.985   2.011   7.228  0.0684  0.9686 -0.1670
 8677TIP3   OH252141   6.688   6.781   0.731  0.1654  0.1886 -0.0252
 8677TIP3    H152142   6.759   6.716   0.730 -0.0962 -0.1213 -2.0505
 8677TIP3    H252143   6.625   6.746   0.795  2.5929  1.4588  3.3612
 8678TIP3   OH252144   6.398   2.563   5.666 -0.5172 -0.1270  0.2640
 8678TIP3    H152145   6.445   2.555   5.584  0.5041  0.7532  0.7366
 8678TIP3    H252146   6.437   2.639   5.709 -2.3114  0.5843  0.7287
 8679TIP3   OH252147   0.704   7.787   6.335  0.1027  0.8077 -0.2111
 8679TIP3    H152148   0.770   7.743   6.281  0.3684  2.2898 -1.1457
 8679TIP3    H252149   0.754   7.827   6.406 -0.3189 -1.7571  1.6847
 8680TIP3   OH252150   4.332   2.499   0.726  0.1870 -0.8973  0.1476
 8680TIP3    H152151   4.371   2.422   0.767  1.3318  0.7768  2.4136
 8680TIP3    H252152   4.308   2.556   0.799  2.7096  2.4428 -1.3478
 8681TIP3   OH252153   1.759   4.587   0.914 -0.3356  0.4422  0.3032
 8681TIP3    H152154   1.705   4.509   0.898  0.2900  0.2329 -0.8983
 8681TIP3    H252155   1.712   4.658   0.870 -1.1491  0.8670  1.7940
 8682TIP3   OH252156   1.045   7.346   7.443  0.2055 -0.0346 -0.7524
 8682TIP3    H152157   1.119   7.374   7.389 -1.0739  1.5028 -1.7920
 8682TIP3    H252158   0.983   7.419   7.439 -0.6213 -0.5198  1.5579
 8683TIP3   OH252159   6.300   4.456   0.182 -0.4063 -0.0634  0.0254
 8683TIP3    H152160   6.249   4.443   0.102  1.3004 -1.9192 -0.8602
 8683TIP3    H252161   6.274   4.383   0.239  1.0512 -0.9518 -0.3858
 8684TIP3   OH252162   4.394   0.448   6.525  0.1642  0.3789  0.5483
 8684TIP3    H152163   4.356   0.361   6.536  1.0062 -0.4110 -2.1408
 8684TIP3    H252164   4.437   0.466   6.609  0.0100 -1.8087  1.1553
 8685TIP3   OH252165   1.952   1.547   0.926  0.3756 -0.4504 -0.3717
 8685TIP3    H152166   2.028   1.508   0.883  0.5121  0.8566 -1.3809
 8685TIP3    H252167   1.893   1.571   0.854  0.2453  1.0432  0.1869
 8686TIP3   OH252168   6.135   3.354   1.259  0.5207 -0.1106 -0.1280
 8686TIP3    H152169   6.106   3.266   1.235 -1.1979  0.5038 -0.4302
 8686TIP3    H252170   6.110   3.365   1.351  1.6224 -0.2794  0.2020
 8687TIP3   OH252171   7.029   0.375   6.730  0.1781  0.6599  0.2093
 8687TIP3    H152172   7.103   0.433   6.717  0.3678  0.2350 -0.6245
 8687TIP3    H252173   6.959   0.411   6.675 -0.3099  1.1576  1.1173
 8688TIP3   OH252174   7.030   1.979   7.650 -0.2113  0.1057  0.1528
 8688TIP3    H152175   7.068   1.970   7.737  1.4597 -0.0458 -0.5462
 8688TIP3    H252176   6.990   2.067   7.650  1.8187  1.0915  0.3735
 8689TIP3   OH252177   6.327   2.396   1.848 -0.5599  0.0895 -0.1630
 8689TIP3    H152178   6.240   2.357   1.848 -0.4484 -0.1962  1.3645
 8689TIP3    H252179   6.318   2.477   1.900 -0.0627  0.4125 -0.5628
 8690TIP3   OH252180   6.686   3.118   0.528 -0.2697 -0.5008 -0.0504
 8690TIP3    H152181   6.666   3.110   0.621 -1.4444 -1.1506 -0.3384
 8690TIP3    H252182   6.762   3.175   0.525 -0.6157  0.0718  1.2643
 8691TIP3   OH252183   6.506   5.876   0.158  0.2741  0.3711 -0.2998
 8691TIP3    H152184   6.562   5.947   0.124  0.9236  0.1205  0.2233
 8691TIP3    H252185   6.551   5.796   0.131  0.2655  0.1690  0.2742
 8692TIP3   OH252186   3.310   5.662   0.252  0.1900 -0.2368  0.4060
 8692TIP3    H152187   3.333   5.650   0.344 -0.5851 -0.1174  0.6215
 8692TIP3    H252188   3.246   5.593   0.234 -0.6626  0.5613  0.3236
 8693TIP3   OH252189   0.136   7.517   7.066  0.2523 -0.2160  0.0207
 8693TIP3    H152190   0.104   7.519   7.156 -1.6054 -1.2899 -0.5496
 8693TIP3    H252191   0.186   7.436   7.060 -0.0471 -0.4035 -0.0132
 8694TIP3   OH252192   3.233   0.742   0.716 -0.1521 -0.6093  0.0990
 8694TIP3    H152193   3.142   0.763   0.739  0.0490  0.6458 -0.1539
 8694TIP3    H252194   3.284   0.766   0.793  0.0162 -0.7746  0.0387
 8695TIP3   OH252195   6.095   1.350   0.816  1.0799  0.3996 -0.2846
 8695TIP3    H152196   6.167   1.400   0.854 -0.5207  1.9676  0.8186
 8695TIP3    H252197   6.024   1.358   0.879 -0.4977 -0.0164 -1.9369
 8696TIP3   OH252198   4.575   4.929   2.189  0.1210  0.3152 -0.4088
 8696TIP3    H152199   4.486   4.915   2.157  0.0914  0.4868 -0.4018
 8696TIP3    H252200   4.629   4.873   2.134 -0.2431 -1.6052  1.0755
 8697TIP3   OH252201   1.630   7.397   1.484 -0.6576 -0.0091 -0.5108
 8697TIP3    H152202   1.550   7.398   1.536 -0.8741 -0.6162 -0.8208
 8697TIP3    H252203   1.679   7.473   1.514 -2.1095  1.4090 -1.4880
 8698TIP3   OH252204   3.520   1.155   6.865 -0.3898  0.5999 -0.7667
 8698TIP3    H152205   3.426   1.162   6.880 -0.6721  0.4862 -2.3346
 8698TIP3    H252206   3.544   1.238   6.823  0.5022  1.2210  0.8667
 8699TIP3   OH252207   5.712   1.584   6.471  0.3706 -0.4272 -0.2024
 8699TIP3    H152208   5.713   1.679   6.477 -2.4096 -0.3503  0.5564
 8699TIP3    H252209   5.765   1.554   6.545  2.0785  0.4535 -1.0010
 8700TIP3   OH252210   4.758   4.836   0.757 -0.3722 -0.1590 -0.0765
 8700TIP3    H152211   4.691   4.818   0.824 -0.2127 -1.1779 -0.1712
 8700TIP3    H252212   4.715   4.815   0.674  0.2880 -1.6102 -0.0847
 8701TIP3   OH252213   1.255   1.171   0.615 -0.1892  0.0558 -0.4665
 8701TIP3    H152214   1.274   1.087   0.573  2.4748 -0.5255  1.6487
 8701TIP3    H252215   1.205   1.149   0.693  0.6334  0.3750  0.1701
 8702TIP3   OH252216   2.455   5.029   1.523 -0.6259  0.1679 -0.4953
 8702TIP3    H152217   2.371   5.071   1.545 -0.3748  0.5531 -0.2688
 8702TIP3    H252218   2.474   5.058   1.434  1.0091  2.9827  0.6518
 8703TIP3   OH252219   5.617   7.102   2.478 -0.3260  0.1653 -0.1849
 8703TIP3    H152220   5.531   7.144   2.478 -0.8819 -0.8873 -1.8226
 8703TIP3    H252221   5.600   7.012   2.452  1.3424  0.1253 -1.3281
 8704TIP3   OH252222   2.070   2.416   6.362 -0.0486  0.2988 -0.4832
 8704TIP3    H152223   2.035   2.417   6.451 -0.6892 -0.6985 -0.7108
 8704TIP3    H252224   2.043   2.332   6.326 -0.0886  0.8193 -1.7439
 8705TIP3   OH252225   1.316   0.622   6.371  0.0423 -0.5191  0.2350
 8705TIP3    H152226   1.327   0.546   6.428  1.2411 -0.9565 -0.5549
 8705TIP3    H252227   1.316   0.586   6.283  2.3336  0.5151 -0.2488
 8706TIP3   OH252228   3.820   6.320   6.685  0.0703  0.4317  0.2267
 8706TIP3    H152229   3.774   6.240   6.660 -1.2152  1.3328 -0.4456
 8706TIP3    H252230   3.843   6.307   6.777  1.8547 -1.5802 -0.4066
 8707TIP3   OH252231   6.705   1.741   6.997 -0.3449 -0.2023  0.3580
 8707TIP3    H152232   6.766   1.803   7.037 -0.0032 -1.5072  1.9931
 8707TIP3    H252233   6.626   1.747   7.051 -0.4838 -0.8350  0.2280
 8708TIP3   OH252234   7.473   4.060   6.969 -0.1117  0.3128  0.0034
 8708TIP3    H152235   7.465   3.965   6.960  2.1648  0.0784 -0.1405
 8708TIP3    H252236   7.400   4.085   7.026 -2.0326 -1.1778 -1.6462
 8709TIP3   OH252237   0.395   0.089   7.731 -0.4979 -0.3098  0.5118
 8709TIP3    H152238   0.453   0.148   7.780  2.0366 -1.8597 -0.4180
 8709TIP3    H252239   0.441   0.074   7.649 -2.1082 -1.8906 -0.1624
 8710TIP3   OH252240   5.006   6.073   0.654  0.8229  0.2372  0.4396
 8710TIP3    H152241   4.978   6.000   0.710 -1.1577  0.7233  0.1590
 8710TIP3    H252242   4.997   6.041   0.565 -0.9815  1.0600  0.2743
 8711TIP3   OH252243   7.531   3.201   0.890  0.0251  0.0128 -0.7267
 8711TIP3    H152244   7.438   3.187   0.873 -0.8187  3.0769  0.7404
 8711TIP3    H252245   7.575   3.176   0.808 -1.8685 -2.7374 -1.0224
 8712TIP3   OH252246   2.984   1.201   7.583 -0.0374 -0.4785  0.7963
 8712TIP3    H152247   2.985   1.280   7.529 -1.1584 -0.2760  1.0490
 8712TIP3    H252248   2.897   1.200   7.623  1.0065 -0.1829  3.2711
 8713TIP3   OH252249   0.085   4.850   0.908 -0.2464  0.0264  0.6603
 8713TIP3    H152250   0.006   4.900   0.891  0.8097  1.6859  0.4135
 8713TIP3    H252251   0.156   4.912   0.894  1.1021 -1.3779  1.0144
 8714TIP3   OH252252   6.936   6.897   1.405 -0.3912 -0.0426  0.0270
 8714TIP3    H152253   6.936   6.910   1.310 -0.2792 -1.3804 -0.1730
 8714TIP3    H252254   6.844   6.903   1.430 -0.3161  1.6242  0.0633
 8715TIP3   OH252255   5.487   0.502   0.895  0.1534 -0.4682 -0.7840
 8715TIP3    H152256   5.567   0.549   0.871 -1.4929  3.5581  0.7620
 8715TIP3    H252257   5.511   0.453   0.974  0.6225  3.0515  1.4910
 8716TIP3   OH252258   5.433   2.569   6.170 -0.2555 -0.0483  0.2698
 8716TIP3    H152259   5.478   2.529   6.094 -0.2666 -1.4485  0.9680
 8716TIP3    H252260   5.344   2.584   6.140 -0.4439 -1.2334  0.1966
 8717TIP3   OH252261   6.315   0.699   7.271  0.3231  0.1423  0.1605
 8717TIP3    H152262   6.365   0.642   7.213 -1.6250 -0.2090 -1.2649
 8717TIP3    H252263   6.254   0.640   7.315 -0.6601  0.8854 -0.1751
 8718TIP3   OH252264   2.759   1.153   1.533 -0.1530 -0.2973  0.0041
 8718TIP3    H152265   2.720   1.118   1.454 -0.9730  0.7793 -0.0803
 8718TIP3    H252266   2.848   1.117   1.534 -0.7045 -1.7153 -0.4743
 8719TIP3   OH252267   4.087   5.106   6.803 -0.1586  0.7569  0.5616
 8719TIP3    H152268   4.025   5.179   6.801 -2.6031 -1.2122 -0.2944
 8719TIP3    H252269   4.165   5.140   6.759  0.3093  3.9677  3.4162
 8720TIP3   OH252270   7.293   0.299   6.549  0.3497 -0.1267  0.3097
 8720TIP3    H152271   7.284   0.340   6.635  0.4600 -0.6185  0.5569
 8720TIP3    H252272   7.286   0.205   6.566 -0.7296 -0.1814 -0.3559
 8721TIP3   OH252273   2.606   4.968   0.213 -0.0009  0.1079 -0.0175
 8721TIP3    H152274   2.661   4.962   0.291  2.4825 -0.7619 -1.7238
 8721TIP3    H252275   2.595   4.877   0.185 -0.4002  0.4479 -0.9974
 8722TIP3   OH252276   4.603   1.485   0.854 -0.0953  0.1304 -0.6188
 8722TIP3    H152277   4.570   1.447   0.772 -1.1625  1.8947 -1.0573
 8722TIP3    H252278   4.539   1.552   0.877  0.8059  0.4805  1.0589
 8723TIP3   OH252279   1.415   2.815   0.490 -0.2318 -0.1971  0.1784
 8723TIP3    H152280   1.371   2.760   0.554 -0.5309 -1.3568 -0.9858
 8723TIP3    H252281   1.501   2.775   0.478  0.1132  0.4563  0.4051
 8724TIP3   OH252282   1.790   7.093   5.420  0.1593 -0.2887  0.1651
 8724TIP3    H152283   1.865   7.125   5.470 -0.8434  0.2518  1.3689
 8724TIP3    H252284   1.817   7.008   5.387  0.9152 -0.5771  1.4857
 8725TIP3   OH252285   7.179   0.288   1.186  0.3378  0.2087 -0.6755
 8725TIP3    H152286   7.142   0.293   1.097  0.3947  0.8162 -0.6672
 8725TIP3    H252287   7.173   0.377   1.219 -0.8318 -0.2450  0.4039
 8726TIP3   OH252288   2.725   7.386   5.747  0.0141  0.3509  0.4061
 8726TIP3    H152289   2.641   7.400   5.792  0.1513  0.3156  0.6731
 8726TIP3    H252290   2.703   7.329   5.673 -0.0327 -0.4696  1.0348
 8727TIP3   OH252291   0.250   4.557   0.373  0.7525 -0.2269 -0.1384
 8727TIP3    H152292   0.299   4.485   0.412  0.0440 -1.3012 -1.1493
 8727TIP3    H252293   0.223   4.523   0.287  1.0649  1.5286 -0.9646
 8728TIP3   OH252294   5.359   2.481   1.289  0.2081  0.3151  0.4635
 8728TIP3    H152295   5.287   2.543   1.285 -1.4942 -1.5978 -0.2085
 8728TIP3    H252296   5.437   2.535   1.303 -1.2697  2.4915  0.6929
 8729TIP3   OH252297   5.342   5.933   6.063 -0.3906 -0.7780 -0.3047
 8729TIP3    H152298   5.422   5.911   6.016 -0.6382 -1.4114 -0.4293
 8729TIP3    H252299   5.319   5.854   6.112  0.4846  0.1975  1.8011
 8730TIP3   OH252300   5.750   1.668   0.343 -0.3288  0.5200  0.5033
 8730TIP3    H152301   5.831   1.709   0.313  0.3535 -1.3616 -0.3779
 8730TIP3    H252302   5.732   1.709   0.428  0.7555  1.9629  0.0777
 8731TIP3   OH252303   4.816   5.394   6.440 -0.2417 -0.1919  0.3963
 8731TIP3    H152304   4.890   5.338   6.464 -0.6234  0.2478  2.8311
 8731TIP3    H252305   4.809   5.457   6.511 -1.9091  0.8593 -0.6315
 8732TIP3   OH252306   7.232   0.081   1.742  0.1692 -0.4961 -0.8722
 8732TIP3    H152307   7.297   0.147   1.719  1.5922 -0.4237  2.6477
 8732TIP3    H252308   7.272  -0.003   1.717 -0.0372 -0.2595 -2.0351
 8733TIP3   OH252309   6.586   5.472   7.522  0.3426 -0.6755 -0.0523
 8733TIP3    H152310   6.572   5.396   7.578  0.4505 -1.0968 -0.5922
 8733TIP3    H252311   6.681   5.474   7.507  0.3029 -0.6223 -0.3017
 8734TIP3   OH252312   5.294   4.832   1.064 -0.1744  0.2905 -0.4320
 8734TIP3    H152313   5.388   4.846   1.074 -0.0802  3.4641 -3.7512
 8734TIP3    H252314   5.287   4.771   0.990 -0.7980 -0.2143  0.0219
 8735TIP3   OH252315   0.585   4.419   7.734 -0.8742 -0.0303  0.0409
 8735TIP3    H152316   0.657   4.358   7.746 -1.4600 -0.7964 -0.2873
 8735TIP3    H252317   0.627   4.505   7.725 -0.1430 -0.0640  2.5089
 8736TIP3   OH252318   2.554   4.244   0.192  0.0568 -0.3198  0.0222
 8736TIP3    H152319   2.474   4.290   0.217  1.4690  2.2099  0.3369
 8736TIP3    H252320   2.534   4.205   0.107 -1.4124  0.5933 -0.0844
 8737TIP3   OH252321   1.785   6.688   1.477  0.0061  0.6515 -0.0375
 8737TIP3    H152322   1.762   6.753   1.543  1.8282  0.5297  0.7510
 8737TIP3    H252323   1.872   6.713   1.448 -0.4622  0.2738 -1.9096
 8738TIP3   OH252324   7.262   2.301   6.948  0.3430  0.2681  0.6001
 8738TIP3    H152325   7.262   2.263   7.036  0.9624  0.6908  0.7923
 8738TIP3    H252326   7.334   2.256   6.903 -0.5643 -0.6103  0.0063
 8739TIP3   OH252327   5.744   6.125   7.022 -0.6170 -0.3705 -0.4690
 8739TIP3    H152328   5.791   6.205   7.048  0.4728 -1.3567  0.7193
 8739TIP3    H252329   5.812   6.069   6.986 -1.4481 -0.6330 -1.6788
 8740TIP3   OH252330   3.935   4.807   7.438  0.4216 -0.0512 -0.3684
 8740TIP3    H152331   3.955   4.774   7.525 -0.1718  1.9846  0.5988
 8740TIP3    H252332   3.929   4.729   7.383 -0.3454 -1.4734  1.6305
 8741TIP3   OH252333   3.874   4.485   0.613  0.0367 -0.1748  0.2392
 8741TIP3    H152334   3.854   4.395   0.637  1.4235 -0.9886 -1.4281
 8741TIP3    H252335   3.838   4.496   0.525  1.2897  0.3496 -0.2383
 8742TIP3   OH252336   4.788   6.179   0.356 -0.0199 -0.7501  0.2360
 8742TIP3    H152337   4.786   6.189   0.261 -1.3155  0.4173  0.3507
 8742TIP3    H252338   4.835   6.096   0.370 -1.8486 -2.1936 -1.5195
 8743TIP3   OH252339   2.262   7.158   5.870 -0.4651  0.3023  0.0909
 8743TIP3    H152340   2.351   7.164   5.835  0.2097  0.3244  1.7256
 8743TIP3    H252341   2.256   7.068   5.902 -0.2647  0.8647  1.8361
 8744TIP3   OH252342   5.654   0.962   2.601 -0.7137 -0.0305  0.2413
 8744TIP3    H152343   5.637   1.055   2.613  0.4573 -0.0613  2.7755
 8744TIP3    H252344   5.567   0.923   2.590 -1.3866  1.1598  1.0808
 8745TIP3   OH252345   5.799   0.973   7.665 -0.4944  0.2741 -0.3906
 8745TIP3    H152346   5.841   1.055   7.640  0.6091 -0.4160 -0.8776
 8745TIP3    H252347   5.832   0.954   7.752 -0.6367  0.2762 -0.3359
 8746TIP3   OH252348   6.282   3.626   5.809 -0.3111 -0.5702  0.1778
 8746TIP3    H152349   6.248   3.709   5.841 -0.1596 -0.2036 -0.5925
 8746TIP3    H252350   6.285   3.636   5.714  0.6460 -1.0832  0.1369
 8747TIP3   OH252351   3.815   1.485   1.648 -0.0782 -0.3138  0.4955
 8747TIP3    H152352   3.734   1.455   1.688  0.9436 -1.5345  1.7302
 8747TIP3    H252353   3.864   1.525   1.720  0.5375  0.1967 -0.1860
 8748TIP3   OH252354   0.259   0.433   0.846  0.5530 -0.3655  0.4308
 8748TIP3    H152355   0.228   0.406   0.932 -0.4204  0.0030  0.2159
 8748TIP3    H252356   0.289   0.523   0.858  0.1633 -0.2187  0.3413
 8749TIP3   OH252357   4.200   2.277   6.191 -0.6012 -0.0542 -0.1083
 8749TIP3    H152358   4.192   2.356   6.139  0.5036  2.3551  3.0558
 8749TIP3    H252359   4.292   2.272   6.215 -0.9147 -1.4292  1.0062
 8750TIP3   OH252360   6.606   2.813   0.825  0.4429 -0.4310  0.1747
 8750TIP3    H152361   6.553   2.755   0.880 -0.4620 -0.7339 -0.9811
 8750TIP3    H252362   6.658   2.753   0.771  0.7186 -0.1400  0.1155
 8751TIP3   OH252363   2.405   5.503   6.869  0.3248  0.2119  0.2622
 8751TIP3    H152364   2.430   5.472   6.781  0.8869  0.3195  0.3757
 8751TIP3    H252365   2.359   5.430   6.908  0.5671 -0.0432  0.0798
 8752TIP3   OH252366   0.494   3.996   7.213 -0.4163 -0.1531  0.8173
 8752TIP3    H152367   0.453   3.944   7.144 -2.4334  1.9389  0.3577
 8752TIP3    H252368   0.502   4.084   7.176  2.7900  0.0289  1.6231
 8753TIP3   OH252369   6.659   2.082   1.369 -0.3650 -0.1712  0.3340
 8753TIP3    H152370   6.577   2.129   1.357 -0.7834 -0.9796 -0.0912
 8753TIP3    H252371   6.659   2.054   1.460 -0.9770 -0.8886  0.1302
 8754TIP3   OH252372   1.235   3.706   5.768  0.0852  0.1759 -0.3069
 8754TIP3    H152373   1.242   3.616   5.736  1.0743 -0.1030  0.6493
 8754TIP3    H252374   1.156   3.740   5.725  0.5185 -0.6503 -1.8424
 8755TIP3   OH252375   7.829   3.840   7.691 -0.1747 -0.5192  0.5732
 8755TIP3    H152376   7.788   3.916   7.651 -0.4971 -0.0103  1.8108
 8755TIP3    H252377   7.877   3.876   7.766  0.5031 -1.4183  0.5889
 8756TIP3   OH252378   2.292   1.300   6.288 -0.5485 -0.2420  0.4380
 8756TIP3    H152379   2.292   1.286   6.383 -1.6692 -0.4189  0.4208
 8756TIP3    H252380   2.303   1.212   6.252 -0.3489 -0.2006  0.3956
 8757TIP3   OH252381   2.354   4.482   0.934 -0.0971 -0.3167 -0.4335
 8757TIP3    H152382   2.427   4.540   0.952 -1.1182  0.9604 -0.3010
 8757TIP3    H252383   2.395   4.397   0.916  1.4207  0.4498 -0.7254
 8758TIP3   OH252384   0.509   4.551   6.871 -0.5427 -0.4786 -0.0674
 8758TIP3    H152385   0.526   4.635   6.828 -2.3659 -0.5571 -1.0466
 8758TIP3    H252386   0.511   4.487   6.800  0.6148 -1.2593  0.6387
 8759TIP3   OH252387   2.756   7.513   7.462  0.3868 -0.3124  0.2650
 8759TIP3    H152388   2.777   7.575   7.392 -1.4997  0.1985  0.0830
 8759TIP3    H252389   2.767   7.563   7.543  0.5448 -0.2619  0.2123
 8760TIP3   OH252390   4.350   3.376   7.193 -0.6140 -0.6081 -0.0670
 8760TIP3    H152391   4.391   3.413   7.271 -0.5365  1.0202 -0.8374
 8760TIP3    H252392   4.405   3.405   7.120 -1.4756 -0.8973 -0.8597
 8761TIP3   OH252393   1.151   4.878   1.313 -0.4237  0.3110 -0.5013
 8761TIP3    H152394   1.147   4.903   1.221 -0.2965  2.4068 -0.0048
 8761TIP3    H252395   1.123   4.787   1.315  1.1679 -0.3050 -2.7843
 8762TIP3   OH252396   5.058   2.658   0.141  0.2044  0.1178  0.0982
 8762TIP3    H152397   5.049   2.701   0.226 -1.8109 -2.2755  1.2444
 8762TIP3    H252398   4.968   2.637   0.115  0.8811 -0.4387 -1.9720
 8763TIP3   OH252399   1.070   7.278   1.923 -0.3188  0.3003  0.0785
 8763TIP3    H152400   1.053   7.371   1.909 -0.2746  0.3992  0.6710
 8763TIP3    H252401   1.140   7.257   1.861 -1.6344  0.1886 -1.4658
 8764TIP3   OH252402   1.851   4.492   7.181  0.1247 -0.1378  0.1224
 8764TIP3    H152403   1.845   4.413   7.128 -0.6201 -0.7933  1.1509
 8764TIP3    H252404   1.813   4.560   7.126 -0.2103 -0.7081 -0.3671
 8765TIP3   OH252405   0.650   6.056   6.550  0.2596  0.0577 -0.0303
 8765TIP3    H152406   0.636   6.132   6.607 -0.4499  1.3954 -1.8922
 8765TIP3    H252407   0.567   6.045   6.504  1.1572 -0.2130 -1.6595
 8766TIP3   OH252408   6.096   6.220   2.355 -0.0112 -0.0897 -0.8230
 8766TIP3    H152409   6.012   6.219   2.308 -0.6175 -1.0060  0.2305
 8766TIP3    H252410   6.152   6.161   2.305 -0.7885 -1.4053 -0.1907
 8767TIP3   OH252411   3.914   6.068   0.172  0.2798  0.2238 -0.5938
 8767TIP3    H152412   3.999   6.072   0.128  0.3884 -2.5317 -0.8203
 8767TIP3    H252413   3.851   6.061   0.101  0.2872 -2.0690 -0.4664
 8768TIP3   OH252414   5.423   1.509   2.033 -0.4500 -0.1135 -0.0371
 8768TIP3    H152415   5.380   1.525   1.949 -1.2871  1.9566  0.7462
 8768TIP3    H252416   5.457   1.419   2.025 -1.7004 -0.4704 -2.0468
 8769TIP3   OH252417   0.056   1.934   7.545 -0.1793 -0.0780 -0.0292
 8769TIP3    H152418   0.006   1.876   7.488 -1.0814  1.3148 -0.7059
 8769TIP3    H252419  -0.008   1.964   7.610  0.0474  0.8483 -0.2263
 8770TIP3   OH252420   1.487   3.528   7.696 -0.2108 -0.1721  0.2811
 8770TIP3    H152421   1.477   3.493   7.784 -0.2822 -1.3674 -0.1773
 8770TIP3    H252422   1.556   3.594   7.703 -0.4351 -0.0288  1.2751
 8771TIP3   OH252423   4.154   5.477   0.440 -0.8522  0.7023 -0.0503
 8771TIP3    H152424   4.245   5.490   0.466 -0.6515  0.6394 -0.7142
 8771TIP3    H252425   4.158   5.410   0.372 -1.4097  0.5934  0.0208
 8772TIP3   OH252426   5.929   2.248   0.288 -0.0168  0.0395  0.1749
 8772TIP3    H152427   5.871   2.300   0.234 -0.2167 -0.1955  0.1623
 8772TIP3    H252428   5.912   2.157   0.262  0.2614 -0.0401  0.2600
 8773TIP3   OH252429   7.911   3.359   6.611 -0.4343 -0.4006 -0.2633
 8773TIP3    H152430   7.954   3.436   6.649 -1.3395 -0.3595  0.7197
 8773TIP3    H252431   7.981   3.312   6.566 -0.0798  1.6295 -1.9855
 8774TIP3   OH252432   5.679   0.449   2.655  0.0036 -0.2982 -0.0322
 8774TIP3    H152433   5.721   0.533   2.636  1.2753 -1.0214 -0.5846
 8774TIP3    H252434   5.710   0.426   2.743 -0.6976 -0.0004  0.3033
 8775TIP3   OH252435   1.836   3.434   7.485 -0.2323  0.4080 -0.2069
 8775TIP3    H152436   1.919   3.479   7.496 -0.2337  0.5120 -0.6221
 8775TIP3    H252437   1.772   3.504   7.472 -0.6594  0.4300  1.6998
 8776TIP3   OH252438   6.740   0.757   0.481 -0.1090  0.0227  0.1284
 8776TIP3    H152439   6.726   0.818   0.409 -1.0953  2.6152  2.3328
 8776TIP3    H252440   6.780   0.810   0.550 -2.2275 -1.3958  2.6614
 8777TIP3   OH252441   1.567   0.708   1.445 -0.0858 -0.1009 -0.4752
 8777TIP3    H152442   1.530   0.623   1.470 -0.5082  0.7386  2.0244
 8777TIP3    H252443   1.492   0.758   1.412  0.0233 -0.4069 -1.2176
 8778TIP3   OH252444   0.817   5.251   7.506  0.1238 -0.1256 -0.1101
 8778TIP3    H152445   0.741   5.263   7.563 -0.2910 -0.7831 -0.5163
 8778TIP3    H252446   0.795   5.300   7.427  1.0929  1.5796  0.6037
 8779TIP3   OH252447   5.107   1.718   0.907  0.1671  0.2510 -0.2081
 8779TIP3    H152448   5.032   1.749   0.856  0.2911 -1.5371 -1.5904
 8779TIP3    H252449   5.098   1.622   0.907  1.7068  0.0671  0.7801
 8780TIP3   OH252450   2.703   7.724   7.621 -0.0631 -0.4560 -0.3390
 8780TIP3    H152451   2.646   7.683   7.685 -2.3099 -0.0514 -1.9425
 8780TIP3    H252452   2.739   7.801   7.666 -1.2013 -0.4386  0.5867
 8781TIP3   OH252453   5.068   5.798   6.836  0.3053 -0.5176 -0.4299
 8781TIP3    H152454   5.043   5.741   6.909  1.5503 -1.1852 -0.4999
 8781TIP3    H252455   5.091   5.881   6.877  1.0892 -0.9173 -0.0327
 8782TIP3   OH252456   1.115   6.528   7.779  0.0624 -0.2349 -0.2558
 8782TIP3    H152457   1.164   6.606   7.806  0.3210  0.1585 -1.7697
 8782TIP3    H252458   1.179   6.457   7.781  0.6044  0.1821 -1.7458
 8783TIP3   OH252459   0.998   7.461   0.806  0.2866 -0.1046  0.2638
 8783TIP3    H152460   0.919   7.447   0.754 -0.4624  1.5236  0.9039
 8783TIP3    H252461   1.022   7.373   0.836 -2.2959 -0.5016  1.4769
 8784TIP3   OH252462   7.302   7.399   7.147 -0.1793  0.0247  0.0940
 8784TIP3    H152463   7.231   7.435   7.199 -0.7570  1.2155 -1.4669
 8784TIP3    H252464   7.353   7.475   7.119 -0.2121 -0.5239 -1.5468
 8785TIP3   OH252465   5.344   7.645   0.879  0.2925 -0.1762  0.6727
 8785TIP3    H152466   5.438   7.662   0.877  0.5032 -1.3159 -1.2538
 8785TIP3    H252467   5.318   7.639   0.787 -1.9499  1.4746  1.1156
 8786TIP3   OH252468   0.060   3.452   1.166  0.0599 -0.3847 -0.3895
 8786TIP3    H152469   0.114   3.529   1.147  0.9764 -0.8931  0.0922
 8786TIP3    H252470   0.100   3.382   1.115 -0.0527 -0.8011  0.0869
 8787TIP3   OH252471   4.887   2.334   6.602 -0.3073  0.0843 -0.1923
 8787TIP3    H152472   4.847   2.307   6.519 -1.2350 -0.7211  0.4773
 8787TIP3    H252473   4.904   2.251   6.647 -2.4377  0.5200  1.5752
 8788TIP3   OH252474   0.253   0.220   5.374  0.1222 -0.3696 -0.2078
 8788TIP3    H152475   0.190   0.206   5.303 -0.2825  1.1652 -0.1937
 8788TIP3    H252476   0.333   0.178   5.344 -0.6076 -1.4946 -0.6643
 8789TIP3   OH252477   1.220   1.021   6.260  0.6526 -0.3000  0.3067
 8789TIP3    H152478   1.173   1.023   6.177 -1.5045  1.0528  1.4653
 8789TIP3    H252479   1.249   1.111   6.274  2.4473 -0.8383  0.2897
 8790TIP3   OH252480   7.104   5.481   7.615 -0.0770  0.0633  0.0884
 8790TIP3    H152481   7.128   5.532   7.538 -0.6563 -0.5607 -0.5346
 8790TIP3    H252482   7.158   5.515   7.686  0.9915  0.1682 -0.7558
 8791TIP3   OH252483   0.667   2.339   1.996  0.1741  0.1019 -0.0313
 8791TIP3    H152484   0.638   2.322   1.907  0.2250  1.4317 -0.3199
 8791TIP3    H252485   0.653   2.256   2.042  0.0137 -0.5560 -1.2270
 8792TIP3   OH252486   3.854   6.814   1.143 -0.5118  0.9725 -0.1085
 8792TIP3    H152487   3.943   6.835   1.115  0.8793 -1.9301  1.6196
 8792TIP3    H252488   3.802   6.815   1.062  2.0852 -1.6937 -2.0118
 8793TIP3   OH252489   5.729   4.278   5.777 -0.4372  0.5714  0.4518
 8793TIP3    H152490   5.745   4.200   5.830 -1.7437  0.8761  1.3550
 8793TIP3    H252491   5.746   4.250   5.687  0.7462 -0.2692  0.9173
 8794TIP3   OH252492   1.542   2.809   1.029 -0.0022  0.5129  0.4018
 8794TIP3    H152493   1.513   2.719   1.013  0.8138  0.2877  0.0914
 8794TIP3    H252494   1.613   2.800   1.093 -3.2282  1.4007  4.4475
 8795TIP3   OH252495   1.903   5.790   1.243 -0.2730  0.2690  0.0854
 8795TIP3    H152496   1.869   5.801   1.154 -1.1600 -2.0919  0.0559
 8795TIP3    H252497   1.825   5.782   1.298  0.2393 -0.5523  0.7171
 8796TIP3   OH252498   7.118   1.975   5.821  0.8624  0.3179 -0.1668
 8796TIP3    H152499   7.189   2.014   5.770  0.6908  0.2958 -0.4252
 8796TIP3    H252500   7.041   1.982   5.764  1.0819 -1.5662 -0.7457
 8797TIP3   OH252501   3.874   4.549   5.549 -0.1471 -0.4014  0.3617
 8797TIP3    H152502   3.897   4.457   5.541  0.5161 -0.2925  0.8234
 8797TIP3    H252503   3.809   4.552   5.619  1.3270 -0.3369  1.8093
 8798TIP3   OH252504   0.491   6.544   1.239  0.1312  0.0473 -0.0488
 8798TIP3    H152505   0.509   6.593   1.158 -0.9534 -0.6626 -0.7548
 8798TIP3    H252506   0.409   6.582   1.271  0.3445  0.0453  0.5088
 8799TIP3   OH252507   3.158   7.019   6.851 -0.5090 -0.4174 -0.2762
 8799TIP3    H152508   3.204   7.062   6.923  0.4938  0.7276 -1.5561
 8799TIP3    H252509   3.225   6.969   6.805 -1.4962 -2.7388  0.6707
 8800TIP3   OH252510   7.005   1.085   6.024 -0.1759 -0.2300  0.1620
 8800TIP3    H152511   7.045   1.156   5.974  0.7998 -0.2413  0.8832
 8800TIP3    H252512   6.998   1.120   6.113  1.3200 -1.3710  0.7747
 8801TIP3   OH252513   3.571   7.199   1.133  0.0977 -0.6340 -0.1110
 8801TIP3    H152514   3.657   7.179   1.096  0.0508 -0.4409 -0.3211
 8801TIP3    H252515   3.561   7.293   1.122  0.1007 -0.5684  0.4278
 8802TIP3   OH252516   5.743   0.973   0.816 -0.1099  0.3265  0.4393
 8802TIP3    H152517   5.779   0.967   0.905 -0.6349  0.5784  0.6749
 8802TIP3    H252518   5.814   0.943   0.759  0.8369  1.7875  0.8026
 8803TIP3   OH252519   2.677   2.109   0.131 -0.1391 -0.9206 -0.0037
 8803TIP3    H152520   2.630   2.080   0.052  0.7440 -2.1613 -0.1102
 8803TIP3    H252521   2.768   2.118   0.102  0.3127 -1.9738  0.9835
 8804TIP3   OH252522   4.370   2.914   0.110  0.2944  0.0906 -0.6627
 8804TIP3    H152523   4.297   2.871   0.155 -0.4632  2.1745  0.2014
 8804TIP3    H252524   4.365   2.882   0.020 -1.3145 -0.2650 -0.4674
 8805TIP3   OH252525   3.703   3.795   1.239 -0.0151  0.4393  0.7183
 8805TIP3    H152526   3.737   3.717   1.196 -1.7921 -0.2680  0.5388
 8805TIP3    H252527   3.615   3.807   1.203 -0.2149  1.8657  1.5879
 8806TIP3   OH252528   1.664   1.169   6.807  0.6574 -0.4955  0.3137
 8806TIP3    H152529   1.704   1.229   6.870 -0.3046 -2.4037  2.9162
 8806TIP3    H252530   1.739   1.131   6.760  1.3830  1.0780  0.1073
 8807TIP3   OH252531   2.422   4.601   0.354 -0.2451  0.1771  0.5522
 8807TIP3    H152532   2.338   4.598   0.309 -0.0537 -3.1456  0.1825
 8807TIP3    H252533   2.412   4.671   0.418 -2.6428  1.0286 -0.6263
 8808TIP3   OH252534   2.485   2.346   0.961 -0.3379 -0.2823  0.4856
 8808TIP3    H152535   2.506   2.253   0.950 -0.7426 -0.3539  0.2954
 8808TIP3    H252536   2.391   2.351   0.945 -0.5039  0.0070  1.4889
 8809TIP3   OH252537   0.605   2.446   0.261  0.3146 -0.3352  0.1406
 8809TIP3    H152538   0.639   2.498   0.334 -0.8272  1.4284 -0.4936
 8809TIP3    H252539   0.639   2.490   0.183  0.1547 -1.1801 -0.4187
 8810TIP3   OH252540   6.924   0.318   7.923 -0.1546  0.2358 -0.0180
 8810TIP3    H152541   6.871   0.251   7.880 -0.0238  1.3523 -2.0592
 8810TIP3    H252542   6.996   0.334   7.861 -0.3717  2.4588  0.2524
 8811TIP3   OH252543   5.186   2.816   6.876  0.1566  0.3820 -0.1048
 8811TIP3    H152544   5.149   2.820   6.788  1.2807 -2.1509 -0.7687
 8811TIP3    H252545   5.278   2.841   6.865  0.1422  0.7176  0.4847
 8812TIP3   OH252546   2.149   1.971   0.550  0.4102  0.2571  0.2789
 8812TIP3    H152547   2.085   2.003   0.487 -0.3192  0.9449  1.3290
 8812TIP3    H252548   2.209   2.045   0.564  0.5918  0.0978  0.3503
 8813TIP3   OH252549   2.303   0.773   0.317  0.1663 -0.1743 -0.2706
 8813TIP3    H152550   2.378   0.826   0.342 -0.2740  0.3810 -0.0868
 8813TIP3    H252551   2.302   0.775   0.221 -0.0676  0.4836 -0.2614
 8814TIP3   OH252552   2.803   2.871   2.256 -0.4823  0.7407 -0.4576
 8814TIP3    H152553   2.780   2.935   2.324  0.1532 -0.1560  0.6410
 8814TIP3    H252554   2.896   2.856   2.268 -0.5259 -0.0148 -1.0255
 8815TIP3   OH252555   4.206   6.787   0.414  0.0583  0.6447 -0.4691
 8815TIP3    H152556   4.161   6.817   0.335  0.0513  0.8299 -0.3954
 8815TIP3    H252557   4.222   6.694   0.399 -2.1119  0.0840  0.3437
 8816TIP3   OH252558   5.413   1.898   6.885  0.3682 -0.0250  0.5553
 8816TIP3    H152559   5.411   1.873   6.977  0.2414  0.7082  0.7584
 8816TIP3    H252560   5.359   1.976   6.880 -1.3819 -1.2306 -0.5370
 8817TIP3   OH252561   4.078   7.773   7.854 -1.0120  0.0038  0.5163
 8817TIP3    H152562   4.022   7.815   7.789  1.0289 -0.6849 -1.8375
 8817TIP3    H252563   4.160   7.820   7.849 -0.9228  0.2289  3.0232
 8818TIP3   OH252564   0.554   0.619   0.598  0.4864 -0.2632  0.3238
 8818TIP3    H152565   0.637   0.641   0.640  0.7713  0.1909 -0.4601
 8818TIP3    H252566   0.489   0.627   0.668  1.1630 -1.1235  1.0697
 8819TIP3   OH252567   4.493   5.203   2.068  0.2482 -0.1981  0.0670
 8819TIP3    H152568   4.404   5.170   2.060  0.2859 -0.0659 -1.1396
 8819TIP3    H252569   4.544   5.128   2.099  0.3385 -1.3876 -2.6173
 8820TIP3   OH252570   1.474   6.263   6.089  0.2494 -0.2319  0.5575
 8820TIP3    H152571   1.513   6.260   6.177  1.3572  0.5179  0.1072
 8820TIP3    H252572   1.389   6.305   6.102 -0.0021 -0.9659  1.4006
 8821TIP3   OH252573   4.188   2.005   7.762 -0.0767 -0.6653  0.0395
 8821TIP3    H152574   4.143   2.089   7.747 -0.6105 -0.6135  1.7101
 8821TIP3    H252575   4.175   1.988   7.855  0.0785 -2.5950 -0.2668
 8822TIP3   OH252576   1.245   3.339   7.583 -0.1556  0.0623 -0.0007
 8822TIP3    H152577   1.154   3.318   7.604  0.3328 -2.4608 -0.1773
 8822TIP3    H252578   1.274   3.395   7.656 -1.5591  0.1007  0.5490
 8823TIP3   OH252579   1.755   0.753   7.507  0.5635  0.4462 -0.3620
 8823TIP3    H152580   1.803   0.719   7.432  1.6779 -2.9992  1.6766
 8823TIP3    H252581   1.822   0.772   7.572 -0.5300  0.4352  0.8169
 8824TIP3   OH252582   0.390   4.638   7.304  0.3129  0.0247  0.5581
 8824TIP3    H152583   0.408   4.573   7.371 -0.3162 -1.0738 -0.3109
 8824TIP3    H252584   0.362   4.716   7.353 -0.2088 -0.7756  1.5663
 8825TIP3   OH252585   6.907   0.339   0.482 -0.1477 -0.6060  0.4039
 8825TIP3    H152586   6.999   0.348   0.510 -0.0127 -1.5837  0.2828
 8825TIP3    H252587   6.876   0.262   0.528 -1.0663  0.0018  0.8212
 8826TIP3   OH252588   0.267   7.898   1.286  0.7257  0.5918  0.3113
 8826TIP3    H152589   0.332   7.846   1.239  1.9425  1.8173  0.5645
 8826TIP3    H252590   0.297   7.988   1.276  0.9511  0.9529  3.2396
 8827TIP3   OH252591   6.601   5.380   1.199  0.0617  0.4812  0.0636
 8827TIP3    H152592   6.624   5.414   1.113 -0.0134  3.3513  1.0587
 8827TIP3    H252593   6.508   5.400   1.209  0.0590  0.1407  0.7898
 8828TIP3   OH252594   3.054   2.271   6.184  0.3198  0.0638 -0.3522
 8828TIP3    H152595   3.057   2.265   6.088 -0.4291 -0.4270 -0.3540
 8828TIP3    H252596   3.056   2.365   6.202 -2.4522  0.3349 -0.9933
 8829TIP3   OH252597   5.647   0.669   2.045  0.0797  0.2035  0.1067
 8829TIP3    H152598   5.644   0.605   1.974  1.3933  1.6812 -1.3677
 8829TIP3    H252599   5.690   0.622   2.117 -1.1103 -1.2664 -0.1043
 8830TIP3   OH252600   6.600   4.455   5.504  0.1296  0.7984  0.1257
 8830TIP3    H152601   6.572   4.367   5.530  2.1284  0.1699  0.3421
 8830TIP3    H252602   6.606   4.452   5.409  2.5161 -0.1288  0.2411
 8831TIP3   OH252603   7.390   6.043   6.135 -0.5317  0.2687 -0.1117
 8831TIP3    H152604   7.446   5.985   6.083  0.8253  0.9381  0.5477
 8831TIP3    H252605   7.360   6.109   6.073 -0.7406 -0.1869 -0.5069
 8832TIP3   OH252606   2.863   7.050   1.924 -0.0895 -0.0954 -0.6686
 8832TIP3    H152607   2.935   7.113   1.929  0.0740 -0.3752  2.3536
 8832TIP3    H252608   2.906   6.965   1.917 -0.1367 -0.1780 -0.0243
 8833TIP3   OH252609   4.228   1.483   0.778  0.0127  0.1322 -0.2560
 8833TIP3    H152610   4.209   1.576   0.765  0.7382  0.5736  1.5241
 8833TIP3    H252611   4.142   1.441   0.776 -0.5107  1.1115  0.7161
 8834TIP3   OH252612   7.296   2.009   0.332 -0.2526  0.1136  0.0163
 8834TIP3    H152613   7.392   2.000   0.330 -0.2490 -0.7825  1.9054
 8834TIP3    H252614   7.274   2.000   0.425 -2.1117  1.1162 -0.2946
 8835TIP3   OH252615   0.727   6.710   1.735  0.5151 -0.1010 -0.3276
 8835TIP3    H152616   0.773   6.681   1.814  0.0682 -1.1462 -0.4335
 8835TIP3    H252617   0.703   6.800   1.753 -0.8905 -0.7558  1.3456
 8836TIP3   OH252618   0.341   1.239   1.151  0.0478  0.1539  0.2772
 8836TIP3    H152619   0.388   1.316   1.184  0.8847 -0.1607 -0.1450
 8836TIP3    H252620   0.361   1.170   1.215  1.7253 -0.4739 -0.8708
 8837TIP3   OH252621   0.099   5.555   1.449  0.2433 -0.5822 -0.1500
 8837TIP3    H152622   0.124   5.574   1.540  1.4658  0.4360 -0.6645
 8837TIP3    H252623   0.181   5.565   1.399 -0.2178 -2.0042 -1.2530
 8838TIP3   OH252624   4.071   5.996   6.768 -0.2026  0.4222 -0.6740
 8838TIP3    H152625   4.111   6.062   6.710  1.6032 -1.1732 -1.3366
 8838TIP3    H252626   4.131   5.992   6.843 -1.4735  1.0445  0.4120
 8839TIP3   OH252627   4.142   7.155   7.456 -0.3309  0.1066  0.0068
 8839TIP3    H152628   4.119   7.092   7.525 -1.7234 -0.1152 -0.6177
 8839TIP3    H252629   4.107   7.238   7.487 -1.2137 -0.0494 -0.5386
 8840TIP3   OH252630   3.541   2.542   7.632  0.4787  0.1675 -0.1736
 8840TIP3    H152631   3.637   2.537   7.625  0.6184  2.0549 -0.1731
 8840TIP3    H252632   3.515   2.595   7.557 -0.4920  0.2915  0.2433
 8841TIP3   OH252633   4.540   5.692   5.106  0.3858 -0.1013  0.0489
 8841TIP3    H152634   4.588   5.739   5.038 -0.0888 -0.6023 -0.6461
 8841TIP3    H252635   4.566   5.601   5.094  1.1213 -0.0756  1.2406
 8842TIP3   OH252636   1.555   1.390   1.009 -0.9764  0.3627  0.6961
 8842TIP3    H152637   1.574   1.484   1.017 -1.4191  0.3786  1.7130
 8842TIP3    H252638   1.626   1.356   0.955 -1.2343  1.4171 -0.3617
 8843TIP3   OH252639   4.674   5.700   1.805 -0.0921  0.3762  0.7697
 8843TIP3    H152640   4.674   5.630   1.739 -3.8579 -1.0410  1.9953
 8843TIP3    H252641   4.742   5.674   1.867  0.6046 -0.5366 -0.3179
 8844TIP3   OH252642   4.091   3.039   1.040 -0.1745  1.0056 -0.2762
 8844TIP3    H152643   4.089   2.954   1.083 -3.1584  1.6269  1.0969
 8844TIP3    H252644   4.168   3.083   1.077 -0.4820  0.0951  1.5613
 8845TIP3   OH252645   5.040   3.035   7.095  0.3624  0.0835 -0.3424
 8845TIP3    H152646   5.007   2.958   7.049 -0.3416  0.2520 -0.1285
 8845TIP3    H252647   5.125   3.053   7.054  0.0694 -0.1940 -1.0863
 8846TIP3   OH252648   2.633   0.901   5.993  0.0077 -0.5679 -0.1920
 8846TIP3    H152649   2.644   0.808   5.973  0.3317 -0.6906  0.5414
 8846TIP3    H252650   2.713   0.942   5.962  0.0621 -0.6036 -0.0996
 8847TIP3   OH252651   5.751   2.923   7.103  0.2597  0.1408 -0.1432
 8847TIP3    H152652   5.682   2.987   7.083  1.3600  1.6386  0.6852
 8847TIP3    H252653   5.779   2.943   7.192  1.9980 -0.1996 -0.5658
 8848TIP3   OH252654   0.374   7.500   0.389 -0.0291  0.1974  0.2784
 8848TIP3    H152655   0.450   7.525   0.337 -0.8936 -0.1370 -1.1829
 8848TIP3    H252656   0.307   7.477   0.325 -1.1163 -0.2820  1.5434
 8849TIP3   OH252657   2.444   5.669   7.363 -0.4626 -0.0714 -0.3360
 8849TIP3    H152658   2.428   5.661   7.269  0.0300 -0.3308 -0.4009
 8849TIP3    H252659   2.484   5.755   7.374  0.2463 -0.3756 -0.4757
 8850TIP3   OH252660   2.021   4.286   0.328  0.6965  0.3475  0.4639
 8850TIP3    H152661   1.997   4.348   0.396 -0.1284  0.7300 -0.1613
 8850TIP3    H252662   1.956   4.216   0.335  2.2847 -1.0744  1.9166
 8851TIP3   OH252663   0.056   2.601   7.439  0.3567  0.3026  0.3874
 8851TIP3    H152664   0.110   2.582   7.363  0.2486  0.2606  0.3197
 8851TIP3    H252665  -0.021   2.545   7.428 -0.9063  2.1278 -0.8411
 8852TIP3   OH252666   1.619   8.065   0.394 -0.4441  0.3676  0.3088
 8852TIP3    H152667   1.621   8.150   0.436 -1.8921  0.7989 -0.4303
 8852TIP3    H252668   1.702   8.023   0.419 -0.0085  1.7201  1.2003
 8853TIP3   OH252669   6.436   5.410   6.945  0.1175 -0.2876  0.2045
 8853TIP3    H152670   6.444   5.372   6.858  0.3621 -1.7974  0.8589
 8853TIP3    H252671   6.511   5.470   6.952 -1.5743  2.2628 -1.7184
 8854TIP3   OH252672   5.854   0.655   1.188 -0.3969  0.0755 -0.0959
 8854TIP3    H152673   5.762   0.677   1.172 -0.6371 -0.8393 -0.0791
 8854TIP3    H252674   5.870   0.579   1.132 -0.2478 -1.0228  1.3608
 8855TIP3   OH252675   7.682   1.691   1.190  0.0494  0.0238  0.4780
 8855TIP3    H152676   7.717   1.617   1.240  0.4670 -1.1644 -1.4607
 8855TIP3    H252677   7.719   1.768   1.232 -0.5157 -0.8025  2.6684
 8856TIP3   OH252678   4.354   3.616   0.181  0.0091  0.5982  0.3591
 8856TIP3    H152679   4.358   3.535   0.128 -1.5005  0.0419  1.0366
 8856TIP3    H252680   4.274   3.659   0.151 -0.5175  0.5961  1.7240
 8857TIP3   OH252681   6.283   1.469   0.966 -0.3466  0.5532 -0.1375
 8857TIP3    H152682   6.234   1.426   1.036 -1.0537  1.2634 -0.1836
 8857TIP3    H252683   6.373   1.475   0.999 -0.5446  0.3352  0.4523
 8858TIP3   OH252684   2.650   0.609   6.341  0.6169  0.4015  0.3127
 8858TIP3    H152685   2.667   0.524   6.382  1.7374 -1.0707 -2.8940
 8858TIP3    H252686   2.579   0.592   6.279  0.6553  1.8997 -0.1767
 8859TIP3   OH252687   3.224   4.728   7.566  0.2876 -0.4754  0.3248
 8859TIP3    H152688   3.245   4.640   7.536 -1.2738 -0.1217 -2.1327
 8859TIP3    H252689   3.144   4.718   7.616 -0.1621 -0.4299 -0.3683
 8860TIP3   OH252690   5.342   6.898   0.107 -0.0485  0.4619  0.4053
 8860TIP3    H152691   5.387   6.816   0.088 -0.9579  0.0202  0.1091
 8860TIP3    H252692   5.303   6.924   0.024 -0.9140  0.4707  0.8044
 8861TIP3   OH252693   2.583   0.868   6.810  0.4867  0.5746 -0.5179
 8861TIP3    H152694   2.582   0.790   6.864  2.6705  1.4583  0.8960
 8861TIP3    H252695   2.552   0.838   6.724 -1.2922 -1.2294  0.6614
 8862TIP3   OH252696   0.998   6.902   2.246 -0.4213  0.6942 -0.7497
 8862TIP3    H152697   0.990   6.817   2.202  0.8290 -1.2421  2.3430
 8862TIP3    H252698   1.082   6.936   2.218 -0.0156 -0.1035 -0.5375
 8863TIP3   OH252699   2.166   4.565   6.964 -0.3851  0.3650  0.2448
 8863TIP3    H152700   2.157   4.613   7.046 -0.7261  0.7473 -0.0146
 8863TIP3    H252701   2.261   4.558   6.951 -0.2532  3.1249 -0.9428
 8864TIP3   OH252702   3.602   3.299   2.072 -0.1026 -0.6325 -0.0225
 8864TIP3    H152703   3.642   3.367   2.018  2.0116 -3.6417 -2.6277
 8864TIP3    H252704   3.509   3.300   2.049 -0.0261  0.9827 -0.3544
 8865TIP3   OH252705   2.869   3.787   0.939 -0.0212 -0.1319  0.2062
 8865TIP3    H152706   2.940   3.749   0.991 -0.5276 -1.4484 -0.0235
 8865TIP3    H252707   2.867   3.880   0.964  2.0999  0.0611 -0.1562
 8866TIP3   OH252708   1.004   2.112   6.134 -0.2911  0.5682  0.2434
 8866TIP3    H152709   1.045   2.042   6.084  2.4567  0.1154  2.8265
 8866TIP3    H252710   0.998   2.185   6.073  3.9539  0.4488 -0.6358
 8867TIP3   OH252711   0.159   3.860   0.978 -0.1133 -0.2488 -0.0043
 8867TIP3    H152712   0.111   3.789   0.936 -1.5482 -0.1266  1.3311
 8867TIP3    H252713   0.174   3.924   0.908 -1.3069 -0.6145 -0.6105
 8868TIP3   OH252714   3.660   6.818   7.579  0.0408 -0.4560  0.3131
 8868TIP3    H152715   3.574   6.860   7.579  1.1124  1.9530  1.2471
 8868TIP3    H252716   3.668   6.781   7.667  0.1777 -0.1185  0.4470
 8869TIP3   OH252717   4.435   4.980   0.662 -0.0617  0.5482 -0.1865
 8869TIP3    H152718   4.382   5.020   0.731  0.6947 -0.1491  0.8247
 8869TIP3    H252719   4.429   5.041   0.589 -2.0750  0.5819 -0.0334
 8870TIP3   OH252720   6.166   4.543   2.118  0.0005 -0.4487  0.4263
 8870TIP3    H152721   6.142   4.521   2.208 -1.1398 -0.6966  0.0712
 8870TIP3    H252722   6.125   4.476   2.065  1.2843 -0.7267 -0.2411
 8871TIP3   OH252723   4.839   0.879   5.337  0.2328  0.2396 -0.2799
 8871TIP3    H152724   4.884   0.866   5.421 -1.8843 -1.4649  0.6865
 8871TIP3    H252725   4.876   0.812   5.280 -0.6070 -0.7881  0.3412
 8872TIP3   OH252726   6.473   7.918   6.769 -0.3435 -0.3604 -0.2745
 8872TIP3    H152727   6.468   7.844   6.709 -1.8110 -1.0919  0.6809
 8872TIP3    H252728   6.400   7.905   6.830  0.5998  0.7630  1.1893
 8873TIP3   OH252729   2.465   2.860   7.429  0.7810 -0.0750  0.1466
 8873TIP3    H152730   2.551   2.841   7.394  0.0222 -0.4625 -1.5937
 8873TIP3    H252731   2.404   2.810   7.374 -0.7072  1.7541  0.0123
 8874TIP3   OH252732   7.250   5.451   1.252  0.2085  0.6308 -0.4513
 8874TIP3    H152733   7.318   5.391   1.220 -0.6483 -0.2360 -0.6997
 8874TIP3    H252734   7.176   5.394   1.275 -0.9614  1.6462 -1.5159
 8875TIP3   OH252735   5.230   0.844   7.178  0.2390 -0.4698 -0.1911
 8875TIP3    H152736   5.144   0.881   7.197  0.7865  0.3379  0.8504
 8875TIP3    H252737   5.241   0.773   7.241  0.4550 -0.3727 -0.1157
 8876TIP3   OH252738   3.795   5.444   0.567 -0.2536  0.3971  0.3801
 8876TIP3    H152739   3.778   5.517   0.507  0.4047  0.2964  0.0688
 8876TIP3    H252740   3.838   5.378   0.513  1.3444  0.7284  1.2004
 8877TIP3   OH252741   3.769   7.753   0.921 -0.0214 -0.1394 -0.2739
 8877TIP3    H152742   3.835   7.820   0.903  0.9185 -1.1482 -0.7462
 8877TIP3    H252743   3.705   7.763   0.851 -1.3408  1.9384  1.0998
 8878TIP3   OH252744   1.809   1.257   6.347  0.2525  0.2104  0.3438
 8878TIP3    H152745   1.885   1.269   6.290  1.3281 -0.2132  1.6362
 8878TIP3    H252746   1.737   1.298   6.300  1.6306  2.2180 -0.1361
 8879TIP3   OH252747   2.538   7.875   7.415  0.4414 -0.6242  0.3781
 8879TIP3    H152748   2.444   7.856   7.409  0.6340 -1.2412 -1.3701
 8879TIP3    H252749   2.563   7.848   7.503 -0.9794 -0.6469  0.7897
 8880TIP3   OH252750   2.303   4.963   6.776  0.0694 -0.7312  0.4167
 8880TIP3    H152751   2.367   5.030   6.751 -0.4711 -0.1467  0.5616
 8880TIP3    H252752   2.318   4.950   6.870 -0.8755  0.3789  0.7532
 8881TIP3   OH252753   1.229   0.266   5.127  0.1937 -0.1699  0.0798
 8881TIP3    H152754   1.230   0.262   5.222 -0.8846  0.4436  0.1392
 8881TIP3    H252755   1.271   0.185   5.099  0.7054 -0.2597  1.0749
 8882TIP3   OH252756   4.447   4.798   0.051 -0.2727 -0.0935 -0.4972
 8882TIP3    H152757   4.460   4.890   0.031 -0.7909  0.9817  3.3079
 8882TIP3    H252758   4.535   4.759   0.043  0.5724  1.4479  0.7409
 8883TIP3   OH252759   7.560   2.202   2.514 -1.0102 -0.3251 -0.1802
 8883TIP3    H152760   7.654   2.204   2.529 -0.8604 -3.1008 -0.1375
 8883TIP3    H252761   7.522   2.178   2.598 -1.4456 -2.0512 -0.8216
 8884TIP3   OH252762   5.273   7.777   5.439 -0.0830  0.0366 -0.2457
 8884TIP3    H152763   5.249   7.751   5.528 -1.8331  2.7376  0.1922
 8884TIP3    H252764   5.352   7.830   5.450 -1.9760  3.0081  0.2755
 8885TIP3   OH252765   5.480   5.827   1.427  0.0522 -0.2231  0.2214
 8885TIP3    H152766   5.520   5.745   1.453  0.9924 -0.8780 -2.9228
 8885TIP3    H252767   5.419   5.804   1.357 -1.2640  1.5427  0.6908
 8886TIP3   OH252768   8.013   3.293   0.363  1.1925  0.1134 -0.4516
 8886TIP3    H152769   7.958   3.274   0.439 -0.6521  0.6599 -1.5786
 8886TIP3    H252770   8.101   3.307   0.399  0.5092 -0.3115  1.4806
 8887TIP3   OH252771   2.603   3.899   2.517 -0.1498 -0.0815  0.2155
 8887TIP3    H152772   2.614   3.956   2.593 -1.4465  0.8468 -0.2685
 8887TIP3    H252773   2.692   3.887   2.484  0.4912 -0.7931  2.0440
 8888TIP3   OH252774   0.011   6.049   6.591  0.4773  0.2214  0.2547
 8888TIP3    H152775  -0.041   5.981   6.548 -1.0846  1.2325  0.4790
 8888TIP3    H252776   0.017   6.020   6.682  3.7421 -1.8941 -0.4299
 8889TIP3   OH252777   5.175   7.080   7.403  0.5206  0.3936  0.7309
 8889TIP3    H152778   5.265   7.059   7.382  0.4450  0.0278  0.7500
 8889TIP3    H252779   5.180   7.160   7.455  0.6341  1.8308 -1.4076
 8890TIP3   OH252780   6.810   0.552   6.623 -0.2203 -0.0460 -0.6598
 8890TIP3    H152781   6.815   0.614   6.551  0.8254 -0.3775 -0.8908
 8890TIP3    H252782   6.729   0.504   6.608 -0.0149 -0.1090 -1.6235
 8891TIP3   OH252783   2.201   6.442   7.539  1.0962 -0.1255 -0.3424
 8891TIP3    H152784   2.123   6.484   7.505  0.2163 -2.4126 -1.3228
 8891TIP3    H252785   2.252   6.416   7.462  2.1317  0.0670  0.2438
 8892TIP3   OH252786   5.440   5.436   0.865  0.0972  0.3996  0.3830
 8892TIP3    H152787   5.480   5.358   0.826  0.3309  0.8219 -0.2394
 8892TIP3    H252788   5.423   5.494   0.791  0.5132  1.2077  0.8993
 8893TIP3   OH252789   1.261   5.841   0.525  0.3704  0.5682 -0.4083
 8893TIP3    H152790   1.322   5.889   0.468  1.0662 -0.0679 -0.2157
 8893TIP3    H252791   1.300   5.754   0.534 -0.5643  0.1505 -0.2595
 8894TIP3   OH252792   0.477   6.632   0.379  0.0723 -0.7754 -0.4176
 8894TIP3    H152793   0.532   6.596   0.310 -1.5366 -1.9156 -1.1853
 8894TIP3    H252794   0.389   6.600   0.359 -0.7484  0.2729  1.2144
 8895TIP3   OH252795   2.013   7.013   1.346  0.0101 -0.7363  0.4869
 8895TIP3    H152796   1.918   7.003   1.351  0.1785 -2.3565  1.3515
 8895TIP3    H252797   2.047   6.926   1.370  1.7141 -0.0927  0.5346
 8896TIP3   OH252798   2.407   0.013   7.875 -0.9155 -0.0354  0.2750
 8896TIP3    H152799   2.415  -0.077   7.909 -0.4068  0.1717  0.7122
 8896TIP3    H252800   2.379   0.064   7.951  0.3644  0.4580  0.4353
 8897TIP3   OH252801   4.048   0.102   6.255  0.7650  0.6302  0.3569
 8897TIP3    H152802   3.967   0.080   6.209  0.1180  0.0474  1.7080
 8897TIP3    H252803   4.026   0.093   6.348  1.8361  2.3634  0.8319
 8898TIP3   OH252804   3.059   5.750   7.226 -0.3232  0.0583  0.0074
 8898TIP3    H152805   3.007   5.682   7.185 -0.4039  0.9472 -1.4503
 8898TIP3    H252806   3.089   5.712   7.308 -2.3910 -0.8337  0.4045
 8899TIP3   OH252807   4.118   0.960   7.025 -0.2855 -0.4895  0.2675
 8899TIP3    H152808   4.180   1.029   7.051 -1.4868  0.4534  0.7177
 8899TIP3    H252809   4.130   0.952   6.931 -0.2064  0.4393  0.1817
 8900TIP3   OH252810   2.301   2.015   7.192 -0.4923  0.1007 -0.0184
 8900TIP3    H152811   2.208   2.026   7.171 -0.5501 -1.9375 -1.1677
 8900TIP3    H252812   2.346   2.025   7.108  0.3212  0.8029  0.4796
 8901TIP3   OH252813   1.991   2.023   0.111  0.1604  0.4834 -0.1665
 8901TIP3    H152814   1.953   1.952   0.060 -0.3033 -0.3710  1.3158
 8901TIP3    H252815   2.073   1.987   0.145 -0.0850  0.6497  0.6089
 8902TIP3   OH252816   7.932   2.105   0.963  0.2219 -0.7258  0.1670
 8902TIP3    H152817   7.944   2.036   1.029 -0.5752 -0.5353  0.5261
 8902TIP3    H252818   7.842   2.092   0.931 -1.1081  1.9907  2.4227
 8903TIP3   OH252819   3.327   2.166   0.435  0.4403  0.0360 -0.8441
 8903TIP3    H152820   3.235   2.189   0.418 -0.5181 -1.2741  1.9603
 8903TIP3    H252821   3.332   2.072   0.419 -0.0442 -0.8893  3.1750
 8904TIP3   OH252822   2.667   4.037   7.289 -0.6784  0.2314  0.1178
 8904TIP3    H152823   2.627   3.962   7.332  0.4257 -0.7186 -0.4648
 8904TIP3    H252824   2.746   4.002   7.249 -1.5070  1.1256 -2.4701
 8905TIP3   OH252825   7.167   7.367   6.627 -0.2594  0.4625 -0.4604
 8905TIP3    H152826   7.137   7.282   6.660  0.7747  1.1459  2.5842
 8905TIP3    H252827   7.088   7.421   6.627 -0.5852 -0.0056 -0.6577
 8906TIP3   OH252828   4.129   2.357   6.892  0.3199 -0.0266 -0.1689
 8906TIP3    H152829   4.222   2.377   6.906  0.7505 -0.9173 -1.5170
 8906TIP3    H252830   4.127   2.314   6.807 -1.1818 -1.1636  0.4062
 8907TIP3   OH252831   5.829   1.514   0.760 -0.0506  0.6862  0.7527
 8907TIP3    H152832   5.925   1.515   0.767  0.1744  0.4974 -1.5510
 8907TIP3    H252833   5.807   1.422   0.744 -0.4382  0.9706 -0.4159
 8908TIP3   OH252834   4.825   2.467   0.789  0.4982 -0.0421 -0.0568
 8908TIP3    H152835   4.853   2.492   0.877 -0.6300 -2.2638  1.0209
 8908TIP3    H252836   4.737   2.505   0.780  0.7667  0.5106 -0.4013
 8909TIP3   OH252837   7.820   3.503   7.428 -0.7736 -0.2067  0.8547
 8909TIP3    H152838   7.882   3.470   7.493  1.1524  0.2835 -0.6317
 8909TIP3    H252839   7.736   3.462   7.452  0.5552 -2.6663  1.6672
 8910TIP3   OH252840   0.461   2.272   0.461  0.1712  0.3376  0.0292
 8910TIP3    H152841   0.493   2.345   0.514 -0.0750  1.3991 -1.2426
 8910TIP3    H252842   0.477   2.299   0.371 -0.6985 -0.8194 -0.4932
 8911TIP3   OH252843   4.904   7.865   7.235  0.0934 -0.5325 -0.0000
 8911TIP3    H152844   4.966   7.929   7.200 -0.2013 -0.6412 -0.7207
 8911TIP3    H252845   4.874   7.904   7.317 -0.5450  0.5466 -0.7241
 8912TIP3   OH252846   5.892   2.004   5.744 -0.0991 -0.3671  0.2212
 8912TIP3    H152847   5.925   1.916   5.729  1.8375 -0.0789  2.2782
 8912TIP3    H252848   5.860   2.004   5.834  1.6680  1.4571  0.9286
 8913TIP3   OH252849   2.525   0.221   7.197  0.8436  0.1946 -0.0680
 8913TIP3    H152850   2.521   0.242   7.290  1.0125  0.0232 -0.0220
 8913TIP3    H252851   2.456   0.156   7.184 -0.1251  1.2512 -0.3404
 8914TIP3   OH252852   1.777   4.881   2.371  0.0060  0.1217 -0.4062
 8914TIP3    H152853   1.686   4.881   2.342  0.1670  0.0320 -0.9203
 8914TIP3    H252854   1.809   4.793   2.348 -0.0019 -0.1219  0.4885
 8915TIP3   OH252855   6.105   1.176   1.414 -0.8776 -0.3601  0.3636
 8915TIP3    H152856   6.061   1.123   1.480  0.5535 -1.1332  0.7442
 8915TIP3    H252857   6.116   1.262   1.456 -2.5483  0.0487  0.0165
 8916TIP3   OH252858   5.864   2.219   2.618  0.1228  0.2929 -0.4919
 8916TIP3    H152859   5.958   2.209   2.632  0.4353  0.8563 -1.9447
 8916TIP3    H252860   5.850   2.189   2.528 -0.9117  1.1438 -0.6371
 8917TIP3   OH252861   7.694   3.782   6.325 -0.0052 -0.3680 -0.8785
 8917TIP3    H152862   7.624   3.730   6.364 -1.4764  2.2937  0.3202
 8917TIP3    H252863   7.744   3.816   6.400  0.4066  0.5475 -1.5414
 8918TIP3   OH252864   1.132   5.658   1.192 -0.0837 -0.5902 -0.0010
 8918TIP3    H152865   1.129   5.750   1.219  0.9427 -0.6346  0.3160
 8918TIP3    H252866   1.060   5.649   1.130 -0.3932  0.3520  0.2012
 8919TIP3   OH252867   7.374   6.252   6.315 -0.2218  0.4342  0.2041
 8919TIP3    H152868   7.282   6.276   6.329  0.1870  0.3231  4.6548
 8919TIP3    H252869   7.371   6.164   6.278 -1.9354  0.4523  0.2270
 8920TIP3   OH252870   2.748   3.919   6.910 -0.0193 -0.6958  0.0898
 8920TIP3    H152871   2.761   4.014   6.907  2.5306 -0.9879 -0.3629
 8920TIP3    H252872   2.837   3.883   6.921 -0.7301 -3.0958 -1.3786
 8921TIP3   OH252873   0.182   1.035   6.564 -0.1229  0.0236  0.0863
 8921TIP3    H152874   0.135   0.981   6.500  0.1371 -0.2981  0.1656
 8921TIP3    H252875   0.179   0.984   6.645 -0.8162  0.6142  0.4501
 8922TIP3   OH252876   5.746   6.820   6.363 -0.2693 -0.4846 -0.2057
 8922TIP3    H152877   5.666   6.864   6.391  0.3687  2.0209 -1.9039
 8922TIP3    H252878   5.724   6.782   6.278  0.5770  1.3309 -1.3068
 8923TIP3   OH252879   7.156   3.944   5.738  0.6927  0.3342  0.1288
 8923TIP3    H152880   7.098   3.887   5.688  1.6013 -1.0183  0.5872
 8923TIP3    H252881   7.236   3.949   5.686  1.1940 -0.1008  0.8433
 8924TIP3   OH252882   0.801   6.060   5.706  0.7650  1.0089  0.4852
 8924TIP3    H152883   0.832   5.971   5.722  3.8327  2.1940  1.8200
 8924TIP3    H252884   0.846   6.087   5.626 -2.1975  0.5972 -1.4951
 8925TIP3   OH252885   4.698   2.412   6.066 -0.1080  0.1898  0.3594
 8925TIP3    H152886   4.665   2.408   5.977  0.3517 -0.6682  0.2135
 8925TIP3    H252887   4.789   2.440   6.057 -0.6401  2.2827  0.7390
 8926TIP3   OH252888   3.929   5.666   7.018  0.5094  0.0116 -0.4192
 8926TIP3    H152889   3.899   5.617   6.942  1.4080 -0.3819 -0.5273
 8926TIP3    H252890   4.018   5.693   6.997  0.9482 -0.5054  0.6608
 8927TIP3   OH252891   3.561   5.294   6.149 -0.2571  0.2735  0.3373
 8927TIP3    H152892   3.641   5.310   6.099  0.2209 -0.2138  0.9336
 8927TIP3    H252893   3.511   5.375   6.141 -0.1853  0.2129 -0.9112
 8928TIP3   OH252894   7.575   0.093   1.844  0.2985 -0.3893 -0.2534
 8928TIP3    H152895   7.622   0.060   1.921  0.8383  1.2649  0.1600
 8928TIP3    H252896   7.523   0.166   1.878 -0.0156 -0.1038 -1.3361
 8929TIP3   OH252897   1.716   3.272   2.007  0.2346  1.1007 -0.3751
 8929TIP3    H152898   1.749   3.221   2.081  1.2922  1.0556 -0.8655
 8929TIP3    H252899   1.622   3.283   2.025  0.6894  2.1466  1.5887
 8930TIP3   OH252900   4.549   6.567   7.035  0.4507  0.6091  1.0130
 8930TIP3    H152901   4.521   6.653   7.004 -0.3479  0.0248  0.0563
 8930TIP3    H252902   4.499   6.553   7.115  0.6263  1.0510  1.2046
 8931TIP3   OH252903   7.570   2.842   7.135 -0.6317  0.1623 -0.2137
 8931TIP3    H152904   7.559   2.763   7.082  1.1973 -0.0614 -0.3052
 8931TIP3    H252905   7.569   2.811   7.225  1.6131 -0.2229 -0.2785
 8932TIP3   OH252906   7.151   7.382   2.276  0.5440  0.5067 -0.3208
 8932TIP3    H152907   7.195   7.353   2.196 -1.5877  1.3061 -1.8622
 8932TIP3    H252908   7.129   7.301   2.322 -0.0174 -0.0809 -1.5710
 8933TIP3   OH252909   5.183   7.417   0.881  0.1575  0.2552  0.0994
 8933TIP3    H152910   5.214   7.342   0.930  0.8215  1.6100  1.8776
 8933TIP3    H252911   5.241   7.489   0.907 -0.2972  1.3524 -1.6979
 8934TIP3   OH252912   3.292   5.843   6.296  0.2802 -0.4080  0.2448
 8934TIP3    H152913   3.324   5.876   6.212 -1.2475  0.6551  0.0359
 8934TIP3    H252914   3.353   5.773   6.319  1.1578 -0.2341 -1.3824
 8935TIP3   OH252915   2.245   7.414   0.099  0.0517 -0.1405 -0.3052
 8935TIP3    H152916   2.230   7.488   0.040 -0.1108  1.5808  1.7436
 8935TIP3    H252917   2.237   7.452   0.187 -0.9399 -2.8024  0.8589
 8936TIP3   OH252918   1.928   1.024   6.792  0.2328 -0.0514 -0.4888
 8936TIP3    H152919   1.908   1.007   6.700  1.6224 -1.2340 -0.6045
 8936TIP3    H252920   2.004   1.082   6.790  0.6361 -0.5556 -0.0944
 8937TIP3   OH252921   7.727   4.021   6.789  0.3690  0.5229 -0.1032
 8937TIP3    H152922   7.705   3.929   6.772  0.8134 -0.1513  2.4629
 8937TIP3    H252923   7.664   4.048   6.856 -0.6130  2.5550 -1.7545
 8938TIP3   OH252924   1.387   0.265   7.438 -1.1008  0.6189  0.3281
 8938TIP3    H152925   1.336   0.258   7.520 -2.6908  1.4343 -0.5463
 8938TIP3    H252926   1.380   0.357   7.413 -0.0736  0.5127 -0.4041
 8939TIP3   OH252927   6.186   3.667   1.454 -0.3413 -0.2747  0.0571
 8939TIP3    H152928   6.160   3.593   1.508  0.5347 -0.6276  0.0290
 8939TIP3    H252929   6.274   3.689   1.485 -0.5369  0.6657 -0.0343
 8940TIP3   OH252930   7.261   3.862   0.959  0.5743  0.3384  0.0004
 8940TIP3    H152931   7.349   3.833   0.935  0.8736  1.3817 -0.2274
 8940TIP3    H252932   7.252   3.838   1.051  0.8193 -0.4248 -0.1716
 8941TIP3   OH252933   8.065   1.340   6.118  0.2113  0.2259  0.7698
 8941TIP3    H152934   7.980   1.372   6.149 -0.5447  0.1600 -1.1008
 8941TIP3    H252935   8.078   1.258   6.166 -1.3650 -0.3696  0.2366
 8942TIP3   OH252936   3.682   4.372   6.021  0.3633 -0.0795 -0.6959
 8942TIP3    H152937   3.690   4.343   5.930 -2.6133  0.9500 -1.3900
 8942TIP3    H252938   3.652   4.463   6.015 -2.0404 -0.6484  1.2524
 8943TIP3   OH252939   6.773   1.309   1.079 -0.2657 -0.5156  0.2595
 8943TIP3    H152940   6.820   1.340   1.156 -1.3548  0.7318  0.4684
 8943TIP3    H252941   6.840   1.297   1.012  0.7260 -1.8479  1.4483
 8944TIP3   OH252942   5.363   2.146   5.604 -0.4574 -0.5936  0.1933
 8944TIP3    H152943   5.383   2.068   5.656  0.3603  0.2745  1.2070
 8944TIP3    H252944   5.284   2.182   5.645 -2.0282 -1.9232 -1.4827
 8945TIP3   OH252945   5.366   5.241   6.974  0.1930 -0.8446  0.0087
 8945TIP3    H152946   5.440   5.184   6.996 -0.4134 -1.7093 -0.1011
 8945TIP3    H252947   5.356   5.299   7.049  1.0766 -0.6071 -0.0475
 8946TIP3   OH252948   4.990   2.297   0.310  0.2126  0.0326  0.3809
 8946TIP3    H152949   4.945   2.339   0.236 -0.5477 -0.4567  0.5533
 8946TIP3    H252950   5.063   2.355   0.330 -0.6391  1.1213  0.4271
 8947TIP3   OH252951   6.368   6.511   6.767 -0.0150 -0.0610  0.1018
 8947TIP3    H152952   6.395   6.528   6.677  0.1588 -0.5248  0.0629
 8947TIP3    H252953   6.273   6.522   6.766  0.1437  1.5312  0.2279
 8948TIP3   OH252954   2.094   7.750   0.546  0.2534  0.6152  0.6082
 8948TIP3    H152955   2.038   7.690   0.496  2.9390 -1.8533  0.2651
 8948TIP3    H252956   2.107   7.705   0.630  1.4463  1.2527  0.7789
 8949TIP3   OH252957   2.505   6.372   0.938 -0.0578  0.5494  0.2397
 8949TIP3    H152958   2.421   6.417   0.943 -1.2791 -1.5958  0.2234
 8949TIP3    H252959   2.518   6.335   1.026  0.4844  0.2369  0.0357
 8950TIP3   OH252960   1.415   1.426   6.200 -0.2238  0.7090  0.3080
 8950TIP3    H152961   1.464   1.388   6.127  0.5266  0.2362  1.0288
 8950TIP3    H252962   1.405   1.354   6.262  1.8579  1.7954  2.0325
 8951TIP3   OH252963   5.646   0.576   7.231  0.5210 -0.5136  0.0720
 8951TIP3    H152964   5.625   0.576   7.138 -2.5773  0.2955  0.6615
 8951TIP3    H252965   5.687   0.662   7.246 -0.8264  0.2169 -0.2488
 8952TIP3   OH252966   7.948   5.132   6.745  0.1493  0.0399  0.4699
 8952TIP3    H152967   7.947   5.228   6.738  0.8831  0.0413  0.2793
 8952TIP3    H252968   7.857   5.108   6.761  0.2116  0.9100  2.4215
 8953TIP3   OH252969   3.391   2.937   7.245  0.2025 -0.3362 -0.3411
 8953TIP3    H152970   3.405   2.916   7.153  0.8039  0.7119 -0.5032
 8953TIP3    H252971   3.298   2.959   7.251  0.2571  0.0479 -0.8074
 8954TIP3   OH252972   1.025   4.048   7.645  0.1207 -0.6794  0.3254
 8954TIP3    H152973   0.998   4.061   7.554  2.4756 -3.2032 -0.8615
 8954TIP3    H252974   1.047   4.135   7.677 -0.6018  0.2386 -1.5629
 8955TIP3   OH252975   6.655   5.667   5.719 -0.6993  0.5716  0.0719
 8955TIP3    H152976   6.736   5.698   5.678  1.2771 -1.7268  1.9716
 8955TIP3    H252977   6.640   5.581   5.681  0.1305 -0.7916  2.6312
 8956TIP3   OH252978   7.718   8.042   7.225  0.4284  0.2637  0.1779
 8956TIP3    H152979   7.669   7.973   7.180  1.7865 -0.6774  0.0897
 8956TIP3    H252980   7.809   8.014   7.221  0.7022  0.4829  2.8985
 8957TIP3   OH252981   2.605   1.850   7.028  0.5972 -0.0104 -0.1108
 8957TIP3    H152982   2.611   1.945   7.033 -0.7082  0.1432 -0.9894
 8957TIP3    H252983   2.512   1.831   7.038  0.6778 -1.0913 -1.1225
 8958TIP3   OH252984   2.948   5.745   7.825  0.4982  0.1285 -0.2082
 8958TIP3    H152985   2.860   5.737   7.864  0.4339  0.0608 -0.3687
 8958TIP3    H252986   2.962   5.661   7.781  1.2104 -0.4124  0.9900
 8959TIP3   OH252987   0.655   5.957   6.909 -0.2293 -0.1317 -0.1245
 8959TIP3    H152988   0.636   5.863   6.901  0.4414 -0.0866 -3.3747
 8959TIP3    H252989   0.571   5.999   6.890 -0.3367 -0.0289  0.5411
 8960TIP3   OH252990   7.604   3.596   1.823  1.1920 -0.1326 -0.3488
 8960TIP3    H152991   7.569   3.596   1.912  1.6517  0.7867 -0.1483
 8960TIP3    H252992   7.676   3.533   1.825  0.0727 -1.4505 -0.5591
 8961TIP3   OH252993   2.196   4.532   6.274 -0.2980 -0.1211  0.1094
 8961TIP3    H152994   2.151   4.584   6.208  0.5167  0.8318  0.2690
 8961TIP3    H252995   2.187   4.582   6.355  2.4986  1.0581 -0.1968
 8962TIP3   OH252996   1.970   6.947   6.401  0.3991 -0.1553  0.5882
 8962TIP3    H152997   1.993   6.932   6.493  1.0070  1.6152  0.7674
 8962TIP3    H252998   1.944   7.039   6.398  0.2597 -0.2283 -0.9992
 8963TIP3   OH252999   1.245   5.183   7.442 -0.1715 -0.8911  0.2126
 8963TIP3    H153000   1.190   5.261   7.447 -0.2266 -1.0097  2.7973
 8963TIP3    H253001   1.183   5.110   7.443 -0.0450 -0.9959  0.3362
 8964TIP3   OH253002   7.747   2.428   0.791  0.2380 -0.8991  0.1259
 8964TIP3    H153003   7.655   2.447   0.770 -0.7389 -1.6065  3.1666
 8964TIP3    H253004   7.783   2.513   0.818  0.1061 -0.8382  0.1150
 8965TIP3   OH253005   1.381   4.080   7.030  0.1049 -0.4463  0.0176
 8965TIP3    H153006   1.297   4.061   7.071  0.4153 -1.1787  0.3279
 8965TIP3    H253007   1.369   4.166   6.990 -0.2093  0.2833  1.6322
 8966TIP3   OH253008   3.224   6.384   6.172 -0.8565 -0.0588  0.4581
 8966TIP3    H153009   3.312   6.372   6.136  0.3105 -0.7602  3.2718
 8966TIP3    H253010   3.179   6.301   6.155 -0.2200 -0.4966  0.8711
 8967TIP3   OH253011   6.776   4.318   0.104 -0.0611 -0.2200 -0.1793
 8967TIP3    H153012   6.824   4.398   0.081 -1.0943  0.1021 -1.3376
 8967TIP3    H253013   6.805   4.253   0.040 -1.1363 -0.0132 -0.9123
 8968TIP3   OH253014   8.005   0.487   6.611  0.0219  0.4767  0.0540
 8968TIP3    H153015   7.975   0.577   6.600  0.4564  0.6089 -0.0916
 8968TIP3    H253016   8.033   0.460   6.524  0.6698  0.4900  0.2516
 8969TIP3   OH253017   2.218   2.187   6.138 -0.3444  0.0806 -0.5781
 8969TIP3    H153018   2.269   2.250   6.087 -0.2311 -0.0155 -0.5830
 8969TIP3    H253019   2.171   2.135   6.072 -3.1842  2.3944 -0.5553
 8970TIP3   OH253020   1.078   7.352   0.168 -0.1236 -0.3036 -0.4814
 8970TIP3    H153021   1.072   7.428   0.111 -1.4720 -1.1163 -1.4758
 8970TIP3    H253022   1.019   7.372   0.241 -0.2620 -0.2832 -0.5996
 8971TIP3   OH253023   3.728   5.094   1.415  0.3017 -0.1984 -0.0690
 8971TIP3    H153024   3.815   5.133   1.413  1.2866 -2.2804  0.2816
 8971TIP3    H253025   3.698   5.106   1.505  1.3936 -1.8357  0.5540
 8972TIP3   OH253026   4.934   7.899   6.596  0.5522 -0.0773 -0.4804
 8972TIP3    H153027   4.892   7.821   6.632  1.0733  0.1760  0.7431
 8972TIP3    H253028   5.015   7.868   6.558 -0.7797 -0.6182 -3.1364
 8973TIP3   OH253029   5.141   5.675   7.729 -0.1112  0.9102  0.1650
 8973TIP3    H153030   5.075   5.606   7.733  0.3824  0.2916 -1.4130
 8973TIP3    H253031   5.220   5.635   7.765 -0.0497  0.9379  0.0619
 8974TIP3   OH253032   1.497   3.121   2.422  0.1853 -0.0999  0.4437
 8974TIP3    H153033   1.482   3.128   2.516 -0.7152  2.3216  0.1930
 8974TIP3    H253034   1.416   3.153   2.382  0.8853 -0.2124 -1.1599
 8975TIP3   OH253035   5.480   3.600   0.174 -0.7337  0.1031 -0.1443
 8975TIP3    H153036   5.399   3.649   0.161 -0.3230  1.1436  1.0292
 8975TIP3    H253037   5.546   3.667   0.191  0.0650 -0.8136  0.4666
 8976TIP3   OH253038   2.512   0.784   7.357 -0.8028 -0.2661 -0.9018
 8976TIP3    H153039   2.466   0.851   7.306 -0.1820 -0.1730 -1.3526
 8976TIP3    H253040   2.595   0.771   7.310 -0.2629 -0.2637  0.0235
 8977TIP3   OH253041   7.105   7.953   5.947  0.4210 -0.4625  0.3129
 8977TIP3    H153042   7.051   7.978   6.022  0.7730  0.7641  0.1851
 8977TIP3    H253043   7.057   7.985   5.871  0.3916 -1.1007  0.0567
 8978TIP3   OH253044   8.107   2.277   0.785  0.0584  0.5427  0.1403
 8978TIP3    H153045   8.066   2.214   0.844  0.7235  0.0258  0.0554
 8978TIP3    H253046   8.159   2.223   0.725 -0.1866  1.0981 -0.5796
 8979TIP3   OH253047   0.559   3.601   0.483  0.4356 -0.3864  0.6178
 8979TIP3    H153048   0.635   3.593   0.539 -0.2628 -3.3551  1.3449
 8979TIP3    H253049   0.492   3.546   0.525 -1.6225  0.8706 -0.7843
 8980TIP3   OH253050   4.027   7.704   0.173 -0.4102 -0.3899 -0.5569
 8980TIP3    H153051   4.100   7.755   0.208 -0.7981  0.4958 -0.9964
 8980TIP3    H253052   4.006   7.746   0.090 -2.1914  0.1543  0.1103
 8981TIP3   OH253053   3.510   3.040   0.902  0.5206  0.6326 -0.4710
 8981TIP3    H153054   3.603   3.057   0.918  0.3798  1.8202 -0.7624
 8981TIP3    H253055   3.509   2.970   0.837  1.1813 -0.0273  0.2006
 8982TIP3   OH253056   7.701   3.182   0.241  0.6085  0.7032 -0.2616
 8982TIP3    H153057   7.778   3.155   0.192  0.5595  1.2796 -0.6677
 8982TIP3    H253058   7.638   3.112   0.227  1.5345 -0.4932  1.2745
 8983TIP3   OH253059   6.857   6.425   7.275  0.1255 -0.2247  0.0783
 8983TIP3    H153060   6.921   6.355   7.285  0.0870 -0.1747  0.6701
 8983TIP3    H253061   6.857   6.470   7.359  1.0248  1.2398 -0.6739
 8984TIP3   OH253062   7.925   3.548   6.355 -0.7194  0.0076 -0.3781
 8984TIP3    H153063   7.868   3.570   6.428  0.4776  0.1615  0.5364
 8984TIP3    H253064   7.995   3.613   6.359  1.3190 -2.1027  0.5891
 8985TIP3   OH253065   2.954   0.765   1.615  0.4545 -0.2541  0.1920
 8985TIP3    H153066   2.873   0.746   1.568  0.7745  0.6220 -0.7593
 8985TIP3    H253067   2.926   0.793   1.702 -0.2628  0.0608 -0.1363
 8986TIP3   OH253068   5.981   6.013   6.586 -0.2583  0.3861  0.9047
 8986TIP3    H153069   5.950   6.100   6.559  0.0871  0.5928  1.1680
 8986TIP3    H253070   6.032   6.029   6.665 -0.2530 -0.0689  0.9950
 8987TIP3   OH253071   4.864   1.613   2.374 -0.0900  0.0353 -0.7071
 8987TIP3    H153072   4.949   1.573   2.388 -0.2806  0.0593  0.6113
 8987TIP3    H253073   4.870   1.699   2.416 -1.1798 -0.5038  0.6412
 8988TIP3   OH253074   7.163   7.601   6.886  0.3122  0.5400  0.6313
 8988TIP3    H153075   7.145   7.602   6.792  0.5268  0.3218  0.5843
 8988TIP3    H253076   7.158   7.692   6.914  1.7743  0.8069  0.1059
 8989TIP3   OH253077   5.258   0.660   6.937  0.3559 -0.8443  0.6831
 8989TIP3    H153078   5.291   0.570   6.939  1.8867 -0.2923  1.4415
 8989TIP3    H253079   5.277   0.695   7.024  1.1409  0.6616 -0.0423
 8990TIP3   OH253080   7.341   6.499   5.988  0.2650 -0.5578  0.5150
 8990TIP3    H153081   7.279   6.566   5.959  1.1890 -0.5927 -1.7119
 8990TIP3    H253082   7.404   6.548   6.042  0.8889  0.4164 -1.0190
 8991TIP3   OH253083   4.840   7.593   1.262  0.3061  0.0596 -0.1198
 8991TIP3    H153084   4.788   7.547   1.196 -1.6029  0.1782  1.2097
 8991TIP3    H253085   4.783   7.595   1.339  0.7630  3.5743  0.2802
 8992TIP3   OH253086   4.551   4.999   1.014 -0.1085  0.1096  0.0847
 8992TIP3    H153087   4.478   5.046   0.974 -1.2468 -0.8919  0.8937
 8992TIP3    H253088   4.544   4.910   0.979  0.0312 -0.2854  1.0298
 8993TIP3   OH253089   0.542   4.968   5.873  0.3075 -0.5692 -0.4774
 8993TIP3    H153090   0.607   5.023   5.916 -0.1504 -0.1163 -0.3520
 8993TIP3    H253091   0.498   5.027   5.812  1.1559 -1.2750 -1.8059
 8994TIP3   OH253092   3.677   7.717   7.428  0.5920  0.3596  0.2298
 8994TIP3    H153093   3.689   7.713   7.333 -0.5530 -1.2576  0.1181
 8994TIP3    H253094   3.585   7.698   7.442  0.9543 -0.5149  1.7250
 8995TIP3   OH253095   6.938   4.835   1.370  0.5605 -0.0922 -0.4630
 8995TIP3    H153096   6.875   4.895   1.410  0.6820 -0.4953  0.3728
 8995TIP3    H253097   6.964   4.877   1.289 -0.7878  0.0846 -0.8347
 8996TIP3   OH253098   7.071   7.428   7.586 -0.6244 -0.3760 -0.4786
 8996TIP3    H153099   7.012   7.447   7.513 -1.3557  2.0686  0.6354
 8996TIP3    H253100   7.014   7.393   7.654 -0.4713  0.1267 -0.0838
 8997TIP3   OH253101   3.295   3.787   1.339 -0.5806  0.6268 -0.1633
 8997TIP3    H153102   3.290   3.809   1.432  1.9925  2.9123 -0.4287
 8997TIP3    H253103   3.308   3.693   1.337 -0.7837  0.5200  1.7739
 8998TIP3   OH253104   0.083   1.814   6.524  0.3349 -0.0716 -0.3346
 8998TIP3    H153105   0.012   1.771   6.571  0.2556 -0.6841 -0.9927
 8998TIP3    H253106   0.149   1.831   6.590 -0.4585  0.5781  0.3019
 8999TIP3   OH253107   1.748   2.928   7.211 -0.4340 -0.2598 -0.0643
 8999TIP3    H153108   1.684   2.996   7.231  1.8419  1.1579  3.2503
 8999TIP3    H253109   1.743   2.868   7.285  0.4044 -1.4843 -0.9505
 9000TIP3   OH253110   4.958   6.457   6.093 -0.4546 -0.3686  0.3872
 9000TIP3    H153111   4.951   6.408   6.011 -1.7312 -0.0050  0.2544
 9000TIP3    H253112   4.896   6.413   6.152  1.3871 -1.4500  1.6239
 9001TIP3   OH253113   4.555   0.504   5.945  0.4784 -0.5425  0.1449
 9001TIP3    H153114   4.622   0.504   6.014 -0.3941  0.2461  1.0149
 9001TIP3    H253115   4.512   0.419   5.955 -0.3311 -0.0267  1.2873
 9002TIP3   OH253116   5.425   0.786   7.487  0.1700  0.5047  0.9859
 9002TIP3    H153117   5.433   0.878   7.514  0.5464  1.1126 -1.0256
 9002TIP3    H253118   5.331   0.768   7.492 -0.0076  1.2693  0.6281
 9003TIP3   OH253119   1.945   6.842   0.649  0.0728 -0.0782  0.0588
 9003TIP3    H153120   2.034   6.874   0.636  0.3298 -0.8058 -0.0349
 9003TIP3    H253121   1.890   6.897   0.593  0.4887  0.2487 -0.0238
 9004TIP3   OH253122   5.406   7.625   7.111  0.1774 -0.2670  0.0796
 9004TIP3    H153123   5.412   7.532   7.092 -0.8206 -0.8280  2.1582
 9004TIP3    H253124   5.315   7.648   7.091 -0.2533 -0.3495  1.7742
 9005TIP3   OH253125   5.536   7.799   0.473 -0.4666  0.1650  0.1823
 9005TIP3    H153126   5.628   7.823   0.490 -0.5565  0.2274  0.5893
 9005TIP3    H253127   5.504   7.767   0.557 -0.5118 -0.8787 -0.2283
 9006TIP3   OH253128   7.524   4.153   1.411 -0.1720 -0.5470  0.5043
 9006TIP3    H153129   7.503   4.246   1.417  1.3126 -0.1559  0.2047
 9006TIP3    H253130   7.571   4.144   1.328 -0.4772 -1.6114  0.4237
 9007TIP3   OH253131   5.406   2.804   1.463  0.2301 -0.3547 -0.3015
 9007TIP3    H153132   5.383   2.896   1.477 -0.2771 -0.4546 -0.4515
 9007TIP3    H253133   5.406   2.794   1.368  1.4587 -0.2238 -0.3310
 9008TIP3   OH253134   0.875   3.132   1.134  0.3247  0.1321  0.0894
 9008TIP3    H153135   0.869   3.052   1.082  1.1008 -0.7218  1.2570
 9008TIP3    H253136   0.964   3.130   1.171  0.3353  1.5079  0.1843
 9009TIP3   OH253137   7.419   1.070   0.832 -0.0062  0.3831 -0.0868
 9009TIP3    H153138   7.452   1.139   0.891  1.7953 -0.2950 -0.2338
 9009TIP3    H253139   7.488   1.060   0.766 -0.4160 -1.2596 -0.3120
 9010TIP3   OH253140   5.255   1.311   1.876 -0.6004  0.1930 -0.4262
 9010TIP3    H153141   5.344   1.306   1.909 -1.2155  1.8568  1.7089
 9010TIP3    H253142   5.200   1.279   1.947 -1.7648 -0.2875 -1.4884
 9011TIP3   OH253143   1.122   3.488   7.769  0.0346 -0.2561 -0.0843
 9011TIP3    H153144   1.150   3.446   7.851  0.2340 -2.3022 -1.1348
 9011TIP3    H253145   1.110   3.580   7.792 -0.6722 -0.8976  2.4297
 9012TIP3   OH253146   0.359   5.769   5.991 -0.2779 -0.8744  0.3229
 9012TIP3    H153147   0.291   5.776   6.058  1.5818  1.4011  2.1444
 9012TIP3    H253148   0.337   5.837   5.927 -0.3644 -0.9576  0.2638
 9013TIP3   OH253149   2.886   4.756   0.149 -0.0270 -0.9583 -0.3647
 9013TIP3    H153150   2.794   4.751   0.176  0.1448 -1.5825  0.1523
 9013TIP3    H253151   2.885   4.736   0.055 -0.5684  0.5950 -0.7196
 9014TIP3   OH253152   6.961   1.787   6.581 -0.4856  0.1366 -0.3473
 9014TIP3    H153153   7.019   1.712   6.589 -0.1124  0.3031 -1.4089
 9014TIP3    H253154   6.996   1.838   6.508 -1.0882  1.0250 -0.0420
 9015TIP3   OH253155   7.133   5.178   1.263 -0.2741 -0.3750 -0.3396
 9015TIP3    H153156   7.164   5.116   1.196 -0.1790 -1.6106  0.7915
 9015TIP3    H253157   7.039   5.183   1.250 -0.2606 -0.6251 -0.5472
 9016TIP3   OH253158   2.077   5.133   1.131  0.1531 -0.0818  0.0294
 9016TIP3    H153159   2.051   5.160   1.043  1.1787  1.4698  0.1641
 9016TIP3    H253160   2.088   5.215   1.179  2.0259 -0.7941  0.8914
 9017TIP3   OH253161   1.336   2.464   1.267  1.0052 -0.0950 -0.0604
 9017TIP3    H153162   1.301   2.481   1.355  2.5800  0.8978  0.4051
 9017TIP3    H253163   1.390   2.386   1.278 -1.2915 -1.9194 -0.8829
 9018TIP3   OH253164   3.544   6.527   6.909  0.0373 -0.1243 -0.3832
 9018TIP3    H153165   3.556   6.567   6.995  1.0437 -0.5201 -0.3307
 9018TIP3    H253166   3.467   6.472   6.919 -1.3696  1.7237 -0.4412
 9019TIP3   OH253167   2.595   0.364   5.556 -0.2767  0.0660 -0.0570
 9019TIP3    H153168   2.678   0.317   5.549  0.7670  1.9697 -1.3893
 9019TIP3    H253169   2.608   0.424   5.629 -0.2140  0.8428 -0.7005
 9020TIP3   OH253170   2.905   6.658   7.911  0.3356 -0.7198 -0.0699
 9020TIP3    H153171   2.865   6.572   7.920 -0.5829 -0.1193  2.7650
 9020TIP3    H253172   2.833   6.715   7.884  0.9090 -0.7823 -1.8039
 9021TIP3   OH253173   6.244   1.172   1.830 -0.2312  0.1149 -0.0065
 9021TIP3    H153174   6.294   1.098   1.866 -1.9826 -1.0232  0.2159
 9021TIP3    H253175   6.170   1.132   1.784  0.0040  1.6791 -1.8904
 9022TIP3   OH253176   5.621   5.074   6.986 -0.0545  0.0020  0.2217
 9022TIP3    H153177   5.713   5.049   6.981 -0.3522 -1.0347 -0.3530
 9022TIP3    H253178   5.574   4.991   6.989 -1.0020  0.5131 -0.1874
 9023TIP3   OH253179   1.121   2.250   6.964 -0.4094  0.9576 -0.0334
 9023TIP3    H153180   1.061   2.211   6.900 -0.4723  0.2391  0.4443
 9023TIP3    H253181   1.068   2.315   7.010 -1.3484 -0.8367  1.5275
 9024TIP3   OH253182   6.877   7.823   1.087 -0.7352 -0.3438  0.1608
 9024TIP3    H153183   6.823   7.890   1.129 -1.4556  0.8014 -2.3678
 9024TIP3    H253184   6.953   7.871   1.054 -0.4209 -1.0845 -0.2209
 9025TIP3   OH253185   3.956   1.286   7.086  0.7468 -0.0972  0.0377
 9025TIP3    H153186   3.996   1.253   7.006  0.0384  2.1093 -1.3129
 9025TIP3    H253187   3.866   1.252   7.084  0.0551  1.6677 -1.2874
 9026TIP3   OH253188   5.593   7.051   6.129 -0.2431 -0.0175  0.0170
 9026TIP3    H153189   5.541   6.991   6.077 -0.6231  0.6267 -0.3660
 9026TIP3    H253190   5.636   7.108   6.065  0.7907 -0.4066  0.3341
 9027TIP3   OH253191   2.858   7.501   0.838  0.3958  0.3633 -0.2022
 9027TIP3    H153192   2.883   7.584   0.880 -1.9435 -0.0215  2.2677
 9027TIP3    H253193   2.897   7.433   0.894  1.1965 -0.2249 -1.4442
 9028TIP3   OH253194   7.933   7.318   6.689  0.5107  0.6897 -0.8817
 9028TIP3    H153195   7.976   7.243   6.730  0.4598  0.7393 -0.7362
 9028TIP3    H253196   7.974   7.395   6.730  1.2239  0.7608 -1.7030
 9029TIP3   OH253197   2.354   6.362   7.340 -0.0899 -0.4742 -0.5600
 9029TIP3    H153198   2.386   6.446   7.305 -2.0238 -0.4401 -2.4780
 9029TIP3    H253199   2.389   6.296   7.280 -1.1557 -0.7037 -0.9515
 9030TIP3   OH253200   0.347   1.424   0.297 -0.0505 -0.2776 -0.2347
 9030TIP3    H153201   0.429   1.434   0.345 -0.1711  0.3235 -0.1485
 9030TIP3    H253202   0.327   1.331   0.302  0.4623 -0.3752  0.0145
 9031TIP3   OH253203   4.286   6.753   7.720 -0.4043  0.5866  0.4413
 9031TIP3    H153204   4.370   6.783   7.685 -0.5483 -0.7999 -1.2069
 9031TIP3    H253205   4.220   6.789   7.660 -0.9662  1.0969  1.3312
 9032TIP3   OH253206   1.819   4.856   7.037  0.4898 -0.0976 -0.0100
 9032TIP3    H153207   1.899   4.891   6.998 -0.4941 -0.3842 -2.5009
 9032TIP3    H253208   1.759   4.931   7.038  0.3750 -0.1955  0.6130
 9033TIP3   OH253209   0.222   1.786   1.352 -0.0502  0.0407 -0.1077
 9033TIP3    H153210   0.254   1.876   1.353 -1.9434  0.7653 -0.8951
 9033TIP3    H253211   0.145   1.787   1.410 -1.3574 -0.5395 -1.7613
 9034TIP3   OH253212   0.969   0.131   0.576  0.4426  0.5590  0.2760
 9034TIP3    H153213   0.939   0.172   0.494 -0.4585  0.1680  0.3934
 9034TIP3    H253214   1.021   0.055   0.548  0.5772  0.7291  0.0656
 9035TIP3   OH253215   0.521   5.198   0.350 -0.2852  0.4046 -0.7861
 9035TIP3    H153216   0.445   5.156   0.310 -0.5789 -0.8775  0.9837
 9035TIP3    H253217   0.596   5.146   0.319 -0.5822 -1.0820  0.8317
 9036TIP3   OH253218   1.281   0.487   0.778 -0.4130  0.3442 -0.1788
 9036TIP3    H153219   1.377   0.477   0.773 -0.5507 -0.5394 -1.8731
 9036TIP3    H253220   1.247   0.408   0.736 -1.8762  1.1776 -0.6304
 9037TIP3   OH253221   1.981   2.774   6.127  0.0915  0.1044 -0.2616
 9037TIP3    H153222   2.038   2.697   6.126  0.1826  0.0366  2.5506
 9037TIP3    H253223   2.017   2.830   6.195 -3.0193  0.1598  1.5207
 9038TIP3   OH253224   7.017   2.175   6.654  0.4460 -0.2677 -0.1104
 9038TIP3    H153225   6.987   2.218   6.734 -0.5225 -0.4395 -0.3623
 9038TIP3    H253226   6.978   2.087   6.659 -1.3913  0.4032 -1.7566
 9039TIP3   OH253227   5.582   4.111   6.084  0.0548  0.2118  0.5306
 9039TIP3    H153228   5.549   4.133   6.171  0.4647 -0.5313  0.8885
 9039TIP3    H253229   5.556   4.019   6.072 -0.6500  0.5255 -0.4463
 9040TIP3   OH253230   6.533   4.651   0.767  0.1281 -0.6528  0.1487
 9040TIP3    H153231   6.602   4.717   0.762 -0.0999 -0.3634  0.7259
 9040TIP3    H253232   6.575   4.570   0.736  1.0942 -0.7671  1.6565
 9041TIP3   OH253233   7.548   4.100   1.145  0.1068  0.2552 -0.3213
 9041TIP3    H153234   7.581   4.019   1.107  0.7354 -0.3691  1.4570
 9041TIP3    H253235   7.523   4.154   1.070  0.2712 -1.3272 -1.5470
 9042TIP3   OH253236   5.452   5.937   0.404  0.2052  0.2089  0.6802
 9042TIP3    H153237   5.447   5.841   0.409  0.3703  0.2173  0.9916
 9042TIP3    H253238   5.540   5.955   0.371 -0.2720  0.2139 -0.6609
 9043TIP3   OH253239   1.380   1.429   0.644 -0.1243 -0.5291 -0.0853
 9043TIP3    H153240   1.359   1.336   0.635 -0.5094 -0.5945  1.2479
 9043TIP3    H253241   1.312   1.474   0.595  0.3415 -0.9478 -1.1526
 9044TIP3   OH253242   2.637   2.785   6.523 -0.0317  0.0135  0.0537
 9044TIP3    H153243   2.676   2.702   6.549  1.1956  0.4146 -0.3881
 9044TIP3    H253244   2.704   2.826   6.467 -0.8909  0.9859 -0.3011
 9045TIP3   OH253245   3.017   3.347   7.720  0.0477  0.3749 -0.7584
 9045TIP3    H153246   3.030   3.277   7.784  0.4503  0.8717 -0.2866
 9045TIP3    H253247   3.079   3.326   7.649  0.5521  0.5336 -0.3739
 9046TIP3   OH253248   5.354   5.280   6.630  0.2100 -0.0912 -0.2924
 9046TIP3    H153249   5.434   5.288   6.682 -1.3357  2.1437  1.9775
 9046TIP3    H253250   5.334   5.370   6.602  0.5231 -1.0595 -4.3019
 9047TIP3   OH253251   1.558   0.185   0.844  0.1953 -0.4616 -0.3949
 9047TIP3    H153252   1.501   0.119   0.804 -1.9270  1.1275 -0.1374
 9047TIP3    H253253   1.559   0.257   0.782 -0.9451  0.9332  1.1134
 9048TIP3   OH253254   0.921   5.021   0.415  0.0326 -0.1508 -0.0461
 9048TIP3    H153255   0.834   4.981   0.420 -0.3533  0.3873 -1.7248
 9048TIP3    H253256   0.964   4.975   0.343  1.1715 -0.4373  0.7950
 9049TIP3   OH253257   0.809   4.734   0.166  0.2114  0.1782  0.2233
 9049TIP3    H153258   0.717   4.708   0.173  0.0777 -0.1380 -2.0530
 9049TIP3    H253259   0.827   4.778   0.249 -1.2453 -1.9493  1.7821
 9050TIP3   OH253260   7.059   6.285   7.686  0.0602 -0.3703 -0.0109
 9050TIP3    H153261   6.971   6.293   7.722  1.1071  1.0093  2.5170
 9050TIP3    H253262   7.086   6.196   7.708 -0.4429 -0.5693 -0.1828
 9051TIP3   OH253263   1.088   5.338   2.084  0.3340  0.1743 -0.1577
 9051TIP3    H153264   1.089   5.302   2.173  3.0236 -1.9999 -0.9482
 9051TIP3    H253265   1.012   5.298   2.042  0.1917 -0.3209  0.5586
 9052TIP3   OH253266   6.289   5.297   2.016  0.4677 -0.1043 -0.4664
 9052TIP3    H153267   6.369   5.246   2.031 -0.5820 -1.7103 -0.0339
 9052TIP3    H253268   6.224   5.232   1.989 -0.9579  1.0170  0.1362
 9053TIP3   OH253269   1.508   5.703   0.890 -0.2086 -0.3787  0.1376
 9053TIP3    H153270   1.533   5.628   0.837  2.6020 -0.3683  1.2597
 9053TIP3    H253271   1.459   5.666   0.963 -1.4049 -0.7263 -0.8047
 9054TIP3   OH253272   2.599   3.530   6.319 -0.3888  0.3290 -0.5052
 9054TIP3    H153273   2.629   3.569   6.237 -1.0420  1.2531 -0.3171
 9054TIP3    H253274   2.560   3.447   6.293  1.7806 -0.6753 -0.8170
 9055TIP3   OH253275   7.781   2.645   7.868 -0.5992  0.5296  0.4004
 9055TIP3    H153276   7.833   2.655   7.788 -0.1684  1.8504  0.8135
 9055TIP3    H253277   7.831   2.692   7.934 -0.9257 -0.5826  1.4795
 9056TIP3   OH253278   7.769   5.232   1.798 -0.1244 -0.0405  0.3261
 9056TIP3    H153279   7.776   5.328   1.795 -0.3186  0.0492  1.8814
 9056TIP3    H253280   7.719   5.209   1.720 -0.7595  1.2025  0.3382
 9057TIP3   OH253281   6.149   7.395   2.079 -0.1628  0.3743 -0.1909
 9057TIP3    H153282   6.160   7.304   2.105 -0.2061  0.4952  0.2491
 9057TIP3    H253283   6.061   7.399   2.042  0.4882 -0.1599 -1.8878
 9058TIP3   OH253284   2.984   6.421   6.973 -0.4553 -0.1163  0.4225
 9058TIP3    H153285   3.003   6.439   6.881 -0.6762  0.3158  0.4613
 9058TIP3    H253286   3.054   6.361   7.000 -0.6590 -0.6262 -0.1554
 9059TIP3   OH253287   1.878   5.492   0.810  0.3852 -0.0704 -0.0293
 9059TIP3    H153288   1.831   5.471   0.729 -1.2100 -0.0179  0.8406
 9059TIP3    H253289   1.818   5.467   0.880  0.9763  1.5372  1.1295
 9060TIP3   OH253290   2.763   5.853   6.549  0.0098  0.1262  0.2414
 9060TIP3    H153291   2.736   5.927   6.494 -1.2345  1.3738  2.3792
 9060TIP3    H253292   2.834   5.888   6.603  2.1297 -1.4561 -1.3312
 9061TIP3   OH253293   8.052   4.729   5.444 -0.6670 -0.0339 -0.0942
 9061TIP3    H153294   8.130   4.688   5.406 -1.4269 -1.0785 -0.5846
 9061TIP3    H253295   8.085   4.807   5.489  0.4803  0.3699 -1.5403
 9062TIP3   OH253296   7.186   7.151   7.786 -0.2003 -0.2503  0.1762
 9062TIP3    H153297   7.142   7.129   7.868  0.7429 -0.0586  0.7612
 9062TIP3    H253298   7.164   7.080   7.726 -0.9107 -0.3886  0.5942
 9063TIP3   OH253299   4.272   3.561   7.739  0.6117 -0.2007  0.0732
 9063TIP3    H153300   4.184   3.549   7.777  0.3626 -0.7128 -0.6441
 9063TIP3    H253301   4.279   3.656   7.726  0.1393 -0.1611  0.0745
 9064TIP3   OH253302   4.815   5.833   7.688  0.7653  0.5032  0.1327
 9064TIP3    H153303   4.837   5.828   7.595  0.1084  1.0602 -0.0659
 9064TIP3    H253304   4.741   5.774   7.698  1.5057 -0.3814  0.5346
 9065TIP3   OH253305   4.833   4.046   1.520  0.0358 -0.2065 -0.5101
 9065TIP3    H153306   4.886   3.966   1.524  0.2582 -0.0135  1.1836
 9065TIP3    H253307   4.866   4.100   1.592 -1.8439  0.3132  0.0155
 9066TIP3   OH253308   1.072   7.970   5.938  0.0023  0.1791 -0.2730
 9066TIP3    H153309   1.023   8.010   6.011  1.5498  0.5824  0.5986
 9066TIP3    H253310   1.079   8.040   5.873 -0.2001  0.2520 -0.2176
 9067TIP3   OH253311   4.729   0.732   1.426  0.4955 -0.5058 -0.0608
 9067TIP3    H153312   4.789   0.717   1.354  0.7106  0.0118  0.0146
 9067TIP3    H253313   4.785   0.743   1.503  0.3202  0.2952 -0.0453
 9068TIP3   OH253314   1.307   1.677   5.968  0.1022 -0.0509 -0.0823
 9068TIP3    H153315   1.325   1.738   5.896 -0.4214  0.4473  0.1997
 9068TIP3    H253316   1.365   1.603   5.952  1.3029  0.8383 -0.0402
 9069TIP3   OH253317   2.936   2.969   0.612 -0.4344 -0.2641  0.2763
 9069TIP3    H153318   3.000   2.915   0.567 -0.8298  0.1714 -0.8251
 9069TIP3    H253319   2.971   3.058   0.606 -0.4243 -0.2177  0.9532
 9070TIP3   OH253320   4.350   5.666   5.316  0.2117  0.3264  0.4491
 9070TIP3    H153321   4.393   5.699   5.237 -0.7182 -0.7676 -0.5516
 9070TIP3    H253322   4.367   5.734   5.382  3.3164  0.0416  0.1187
 9071TIP3   OH253323   2.798   1.018   6.337 -0.3547  0.2387 -0.2549
 9071TIP3    H153324   2.831   0.935   6.302 -2.4796 -0.0183 -1.7778
 9071TIP3    H253325   2.707   1.000   6.361 -0.4026  1.7502  0.8219
 9072TIP3   OH253326   5.824   2.075   1.480  0.2203 -0.1510 -0.2366
 9072TIP3    H153327   5.768   2.128   1.423  0.7032  0.5915 -0.0489
 9072TIP3    H253328   5.846   1.998   1.427 -2.3357 -1.3475  0.2967
 9073TIP3   OH253329   7.228   5.696   1.010  0.2124  0.4997  0.4990
 9073TIP3    H153330   7.226   5.601   1.024 -0.0488  0.3404 -0.5246
 9073TIP3    H253331   7.290   5.708   0.938 -0.2829  1.0386  0.1536
 9074TIP3   OH253332   5.437   1.553   7.730  0.7398  0.2242  0.2633
 9074TIP3    H153333   5.513   1.543   7.787  1.4615 -0.9410 -0.8599
 9074TIP3    H253334   5.363   1.524   7.785  1.5386 -1.7954  0.3478
 9075TIP3   OH253335   7.639   0.586   0.659  0.0983 -0.4815  0.2253
 9075TIP3    H153336   7.671   0.598   0.570  0.8346  0.1720  0.5631
 9075TIP3    H253337   7.670   0.663   0.707  0.0072 -0.9857  1.1296
 9076TIP3   OH253338   3.720   0.472   6.856  0.4042 -0.0258 -0.0149
 9076TIP3    H153339   3.800   0.505   6.816  0.3963  1.0003  0.7839
 9076TIP3    H253340   3.650   0.510   6.803  0.3982 -1.8284 -1.4297
 9077TIP3   OH253341   2.938   1.573   0.491 -0.2474 -0.2420  0.4281
 9077TIP3    H153342   2.901   1.498   0.539 -0.3082 -0.5966 -0.1616
 9077TIP3    H253343   2.867   1.638   0.490 -0.3235 -0.3205  0.6239
 9078TIP3   OH253344   4.600   5.231   6.422 -0.1940  0.4491 -0.2318
 9078TIP3    H153345   4.676   5.288   6.413 -0.2097  0.6522  0.8085
 9078TIP3    H253346   4.632   5.144   6.398  0.2109  0.6318 -0.3707
 9079TIP3   OH253347   0.007   1.627   7.203 -0.0692 -0.3359 -0.7920
 9079TIP3    H153348  -0.068   1.654   7.257 -0.3301 -1.4085 -0.5714
 9079TIP3    H253349  -0.003   1.532   7.196  1.1859 -0.4701 -0.9116
 9080TIP3   OH253350   0.080   4.417   1.635 -0.0132  0.3753 -0.2360
 9080TIP3    H153351   0.056   4.463   1.715 -0.6651 -0.2124 -0.0853
 9080TIP3    H253352   0.175   4.427   1.629 -0.1625  1.9339 -0.3344
 9081TIP3   OH253353   3.564   7.642   6.285 -0.1697 -0.4399  0.3709
 9081TIP3    H153354   3.558   7.613   6.376  4.1254 -0.9061  0.7268
 9081TIP3    H253355   3.552   7.563   6.234  0.2598 -0.7477  0.7323
 9082TIP3   OH253356   2.337   3.619   1.576  0.2729  0.2898  0.3097
 9082TIP3    H153357   2.256   3.653   1.615 -0.7647  0.0766 -1.5291
 9082TIP3    H253358   2.381   3.697   1.541 -0.9088  0.0871 -1.7653
 9083TIP3   OH253359   5.908   2.145   2.074 -0.5939 -1.0026 -0.0723
 9083TIP3    H153360   5.874   2.056   2.071 -0.1486 -1.2673  1.7355
 9083TIP3    H253361   5.831   2.201   2.073 -0.8888 -1.4045 -0.6769
 9084TIP3   OH253362   1.115   6.455   7.096  0.6670 -0.0740 -0.1164
 9084TIP3    H153363   1.101   6.376   7.148 -1.7565 -1.3277 -2.4272
 9084TIP3    H253364   1.121   6.526   7.160  0.6180 -1.8204  1.9289
 9085TIP3   OH253365   5.013   7.447   7.793 -0.0889  1.0802  0.0835
 9085TIP3    H153366   5.074   7.499   7.740 -0.2073 -0.0093 -1.1857
 9085TIP3    H253367   4.929   7.491   7.782  0.0039  1.2043 -0.1529
 9086TIP3   OH253368   3.686   3.353   1.713 -0.2962 -0.4574  0.8725
 9086TIP3    H153369   3.677   3.422   1.779 -0.4754  0.2819  0.1033
 9086TIP3    H253370   3.609   3.365   1.657  0.6169 -0.0860 -0.3458
 9087TIP3   OH253371   2.045   6.743   1.409  0.0916  0.0042 -0.2606
 9087TIP3    H153372   2.074   6.680   1.475  0.0660 -0.2665 -0.5049
 9087TIP3    H253373   2.092   6.718   1.329  0.9667  1.0081 -0.0823
 9088TIP3   OH253374   5.763   0.715   2.712 -0.0954 -0.2866  0.2636
 9088TIP3    H153375   5.720   0.800   2.713 -0.5471 -0.5129  0.3235
 9088TIP3    H253376   5.811   0.713   2.629  0.1785  0.1511  0.4064
 9089TIP3   OH253377   0.981   7.367   5.816 -0.2227 -0.1306 -0.1700
 9089TIP3    H153378   0.951   7.282   5.849  0.9378 -0.7147 -0.5585
 9089TIP3    H253379   1.023   7.346   5.733  0.6681  0.7368  0.0486
 9090TIP3   OH253380   7.623   7.995   6.319 -0.1771  0.9497 -0.1988
 9090TIP3    H153381   7.568   8.045   6.258  0.9602  1.6850 -0.6541
 9090TIP3    H253382   7.627   8.049   6.397 -1.1132  0.3039  0.3094
 9091TIP3   OH253383   0.589   1.234   6.161  0.1040 -0.1641 -0.0899
 9091TIP3    H153384   0.501   1.207   6.134  1.7799 -2.7227 -3.8760
 9091TIP3    H253385   0.604   1.315   6.112  0.4431 -0.7165 -0.9255
 9092TIP3   OH253386   5.796   1.668   6.741 -0.2637 -0.2810 -0.2363
 9092TIP3    H153387   5.745   1.748   6.751 -1.1683 -0.9433  0.6557
 9092TIP3    H253388   5.887   1.696   6.751 -0.5137  0.7579 -0.7944
 9093TIP3   OH253389   3.686   2.180   1.303  0.6430  0.1788 -0.1443
 9093TIP3    H153390   3.667   2.165   1.210 -0.1196  0.1905  0.0086
 9093TIP3    H253391   3.781   2.194   1.305  0.6577  0.2765 -0.9356
 9094TIP3   OH253392   2.955   6.628   7.199  0.1042 -0.1207  0.5997
 9094TIP3    H153393   2.970   6.565   7.128  0.3627 -2.0527  2.2645
 9094TIP3    H253394   2.922   6.707   7.155  0.3299 -1.2011 -1.6474
 9095TIP3   OH253395   6.947   4.530   0.906  0.0754 -0.8075  0.1383
 9095TIP3    H153396   7.031   4.558   0.944 -0.6954  1.9096  0.0406
 9095TIP3    H253397   6.882   4.551   0.973 -0.7198 -1.1696 -0.5063
 9096TIP3   OH253398   6.867   0.202   6.988  0.4925  0.2670  0.0682
 9096TIP3    H153399   6.855   0.240   6.901 -2.3015 -2.4290 -0.8950
 9096TIP3    H253400   6.812   0.255   7.045  1.0292  1.0277 -0.1065
 9097TIP3   OH253401   3.604   6.783   7.850  0.3291 -0.3787  0.0022
 9097TIP3    H153402   3.563   6.855   7.898 -0.4514 -1.4089  0.9374
 9097TIP3    H253403   3.530   6.729   7.821  0.9014 -0.8012 -0.6768
 9098TIP3   OH253404   4.830   1.460   7.632  0.3940  0.1553 -0.5731
 9098TIP3    H153405   4.873   1.455   7.718 -1.3682 -1.0845  0.3026
 9098TIP3    H253406   4.871   1.390   7.581 -0.3973 -0.9047  0.1946
 9099TIP3   OH253407   7.806   1.674   0.086  0.2122  0.1759 -0.1385
 9099TIP3    H153408   7.794   1.651   0.178  1.7882 -1.2584 -0.2396
 9099TIP3    H253409   7.727   1.722   0.062 -1.1618 -1.2169  1.3890
 9100TIP3   OH253410   1.905   5.315   1.718  0.4795 -0.1304  0.5174
 9100TIP3    H153411   1.932   5.238   1.669  0.6663 -1.2545  2.3204
 9100TIP3    H253412   1.984   5.343   1.764  0.5131  1.3960 -0.3969
 9101TIP3   OH253413   7.987   4.062   1.476  0.0330  0.1565 -0.4973
 9101TIP3    H153414   7.918   3.996   1.484  2.3606 -2.2350  1.8485
 9101TIP3    H253415   7.945   4.144   1.504 -1.7153 -1.3134  1.4834
 9102TIP3   OH253416   0.050   7.487   1.277  0.6561 -0.0162  0.7583
 9102TIP3    H153417   0.037   7.570   1.324 -0.4948 -0.3059  0.9955
 9102TIP3    H253418   0.144   7.472   1.281  0.8761  1.2175  0.8174
 9103TIP3   OH253419   2.385   7.278   0.499  0.1618 -0.4013 -0.7530
 9103TIP3    H153420   2.291   7.269   0.519  0.4948 -2.1047  0.2673
 9103TIP3    H253421   2.406   7.198   0.450  1.5448 -1.2312  1.0791
 9104TIP3   OH253422   3.686   4.666   7.161 -0.0882 -0.4910 -0.4819
 9104TIP3    H153423   3.710   4.751   7.124  0.3013 -1.0029 -1.4576
 9104TIP3    H253424   3.635   4.623   7.092 -1.5805 -0.4758  0.5660
 9105TIP3   OH253425   5.695   0.619   1.613 -0.1614 -0.1123  0.4631
 9105TIP3    H153426   5.788   0.614   1.592  0.3402  0.5376  2.3424
 9105TIP3    H253427   5.680   0.548   1.676 -1.1556 -0.7651 -0.4608
 9106TIP3   OH253428   5.569   0.579   0.488 -0.6398 -0.3908  0.2907
 9106TIP3    H153429   5.663   0.563   0.489 -0.2165  1.7766  0.0207
 9106TIP3    H253430   5.530   0.493   0.502  1.2796 -1.8933 -2.6248
 9107TIP3   OH253431   6.656   4.285   7.507 -0.7453 -0.0541  0.8917
 9107TIP3    H153432   6.628   4.248   7.423 -1.0091  3.3330 -0.6534
 9107TIP3    H253433   6.749   4.265   7.513 -0.6361  0.0407 -0.3992
 9108TIP3   OH253434   2.671   1.215   6.578  0.4292  0.2359  0.0058
 9108TIP3    H153435   2.629   1.168   6.506  0.4677  1.3767 -0.7826
 9108TIP3    H253436   2.743   1.157   6.606  1.6588  0.6020 -2.1904
 9109TIP3   OH253437   7.612   1.083   0.632 -0.3263 -0.1275  0.5769
 9109TIP3    H153438   7.694   1.133   0.627  0.0420 -0.8023 -0.6517
 9109TIP3    H253439   7.569   1.101   0.548 -1.9443  1.0091  1.6023
 9110TIP3   OH253440   8.013   6.436   5.640 -0.7321  0.0101 -0.8049
 9110TIP3    H153441   7.976   6.351   5.616 -0.9978 -0.3263  0.6505
 9110TIP3    H253442   8.107   6.419   5.650 -0.6671  0.0794 -1.2848
 9111TIP3   OH253443   1.381   0.530   7.359  0.3948 -0.0269 -0.3379
 9111TIP3    H153444   1.458   0.556   7.307  1.8251  0.4427  1.8432
 9111TIP3    H253445   1.347   0.613   7.392  1.3887 -0.4405  1.8780
 9112TIP3   OH253446   7.929   3.411   0.861 -0.6030  0.3852  0.5541
 9112TIP3    H153447   8.006   3.355   0.851 -1.1422 -0.4357  0.8644
 9112TIP3    H253448   7.874   3.365   0.925 -0.6317  1.7506  1.5482
 9113TIP3   OH253449   0.502   6.444   2.292  0.2344  0.1328  0.1215
 9113TIP3    H153450   0.561   6.450   2.217  1.0539  1.4710  0.8336
 9113TIP3    H253451   0.445   6.521   2.284  1.0235  0.8856  1.4194
 9114TIP3   OH253452   0.189   3.372   6.564  0.1960  0.4041 -0.0350
 9114TIP3    H153453   0.236   3.420   6.632 -0.9306  1.0554  0.3213
 9114TIP3    H253454   0.171   3.437   6.497 -0.1422  0.1545 -0.1885
 9115TIP3   OH253455   2.427   3.506   0.594 -0.0820 -0.4539  0.2720
 9115TIP3    H153456   2.471   3.502   0.679  1.5798 -0.9464 -0.5825
 9115TIP3    H253457   2.477   3.447   0.538 -0.3230  0.9007 -1.4294
 9116TIP3   OH253458   4.330   7.735   1.756 -0.0592  0.1916  0.3752
 9116TIP3    H153459   4.399   7.745   1.821  1.9406  0.1275 -1.5947
 9116TIP3    H253460   4.330   7.819   1.710 -0.7410 -0.0926 -0.1471
 9117TIP3   OH253461   0.319   6.051   1.128  0.2043  0.1513 -0.2235
 9117TIP3    H153462   0.386   6.023   1.066  0.6001  0.6563 -0.0302
 9117TIP3    H253463   0.366   6.103   1.192 -0.0354 -1.0841  1.0090
 9118TIP3   OH253464   3.772   3.551   5.582 -0.5297  0.0556  0.3834
 9118TIP3    H153465   3.688   3.583   5.615 -0.9156  1.0801 -1.5120
 9118TIP3    H253466   3.833   3.624   5.594  0.1579 -0.6861  1.7634
 9119TIP3   OH253467   5.422   4.415   0.251 -0.0478  0.1079  0.1889
 9119TIP3    H153468   5.353   4.419   0.318 -0.7025 -2.9394 -0.1535
 9119TIP3    H253469   5.378   4.439   0.170 -0.4194 -0.6342  0.1643
 9120TIP3   OH253470   3.414   6.916   0.902  0.0170  0.3661 -0.3335
 9120TIP3    H153471   3.345   6.981   0.918 -0.4536  0.1646 -1.4989
 9120TIP3    H253472   3.386   6.839   0.950  0.2750  0.8084  0.5569
 9121TIP3   OH253473   5.860   6.921   7.658 -0.0808  0.3990 -0.1398
 9121TIP3    H153474   5.902   6.992   7.707  0.3236  0.6248 -0.8097
 9121TIP3    H253475   5.810   6.873   7.724 -0.8809  1.6795  0.2224
 9122TIP3   OH253476   6.376   6.948   7.430 -0.4259 -0.2117 -0.1858
 9122TIP3    H153477   6.318   6.877   7.457 -0.9670  0.2966 -0.0027
 9122TIP3    H253478   6.325   6.997   7.366 -0.4581  0.6358  0.4759
 9123TIP3   OH253479   2.468   0.752   1.560 -0.6100  0.2435  0.1345
 9123TIP3    H153480   2.379   0.718   1.570 -0.8274  1.2559  2.1090
 9123TIP3    H253481   2.499   0.764   1.649  1.6642 -0.3878 -0.4999
 9124TIP3   OH253482   1.728   4.037   2.340  0.1819 -0.2828  0.3888
 9124TIP3    H153483   1.677   3.961   2.311 -2.5745  1.2601  0.8437
 9124TIP3    H253484   1.796   4.000   2.396 -1.5587 -2.3794  1.2710
 9125TIP3   OH253485   0.317   0.024   1.166  0.3933  0.9911  0.1599
 9125TIP3    H153486   0.372   0.058   1.095 -1.1169  0.7518 -1.1888
 9125TIP3    H253487   0.228   0.025   1.130 -0.3690  0.4656  1.9226
 9126TIP3   OH253488   3.199   4.955   0.834  0.2507 -0.3614 -0.1212
 9126TIP3    H153489   3.281   5.004   0.843  0.0946 -0.1036 -0.0664
 9126TIP3    H253490   3.214   4.873   0.881  0.0694  0.1973  0.9435
 9127TIP3   OH253491   7.307   6.269   7.578 -0.3709  0.1153  0.1967
 9127TIP3    H153492   7.306   6.320   7.497  0.5889  0.4772  0.3898
 9127TIP3    H253493   7.221   6.281   7.616 -0.5619  0.5965 -0.3758
 9128TIP3   OH253494   3.902   4.675   6.218  0.1146  0.0520  0.3118
 9128TIP3    H153495   3.855   4.736   6.163 -1.3627 -0.8507  0.5331
 9128TIP3    H253496   3.895   4.712   6.306 -1.0008 -0.5495  0.4845
 9129TIP3   OH253497   1.863   1.269   7.178 -0.2290 -0.1809 -0.5085
 9129TIP3    H153498   1.885   1.353   7.218  0.1422 -0.1840 -0.7052
 9129TIP3    H253499   1.841   1.290   7.088  1.6379 -0.4957 -1.0802
 9130TIP3   OH253500   3.247   2.467   1.505 -0.6337  0.4787  0.3747
 9130TIP3    H153501   3.217   2.464   1.595 -1.2654  1.1462  0.1982
 9130TIP3    H253502   3.222   2.382   1.468  1.3251 -0.5808  1.3124
 9131TIP3   OH253503   2.055   6.162   1.390 -0.5748  0.2263 -0.2308
 9131TIP3    H153504   1.981   6.204   1.346  0.4395  2.8185  0.3795
 9131TIP3    H253505   2.116   6.233   1.407  2.1966 -1.8357 -0.9063
 9132TIP3   OH253506   6.891   6.863   1.097 -0.0446  0.2035 -0.6042
 9132TIP3    H153507   6.953   6.884   1.027  0.3849 -0.3700 -0.4098
 9132TIP3    H253508   6.877   6.769   1.089 -0.4781  0.2378 -0.3055
 9133TIP3   OH253509   7.015   4.520   7.454 -0.1571 -0.3686 -0.2827
 9133TIP3    H153510   6.962   4.444   7.478 -1.0856  0.7308  1.2747
 9133TIP3    H253511   7.039   4.560   7.538 -0.1656  1.3845 -1.0888
 9134TIP3   OH253512   0.959   0.782   7.223  0.8051  0.2017  0.1712
 9134TIP3    H153513   1.007   0.744   7.149  1.7515  2.6319 -0.5394
 9134TIP3    H253514   1.028   0.811   7.283  0.0776  0.0364  1.1036
 9135TIP3   OH253515   3.353   4.559   2.090  0.2871  0.5333  0.6081
 9135TIP3    H153516   3.293   4.630   2.113  0.7805  1.2245 -0.1417
 9135TIP3    H253517   3.297   4.487   2.062 -0.2175  0.7285  1.1085
 9136TIP3   OH253518   7.493   5.384   6.076 -0.0923  0.6542 -0.0519
 9136TIP3    H153519   7.421   5.429   6.031 -1.6947  0.9018  2.5724
 9136TIP3    H253520   7.560   5.451   6.086 -0.1570  0.8889 -1.0280
 9137TIP3   OH253521   5.250   3.446   1.406  0.5824  1.0211 -0.4427
 9137TIP3    H153522   5.243   3.462   1.312 -1.6508  3.1260 -0.0231
 9137TIP3    H253523   5.174   3.391   1.427  0.0237  2.0474  0.3468
 9138TIP3   OH253524   2.114   7.789   1.775 -0.2749 -0.2515  0.1340
 9138TIP3    H153525   2.065   7.772   1.856  0.3969  1.0484  0.8566
 9138TIP3    H253526   2.048   7.820   1.713 -0.6832 -0.5281  0.4270
 9139TIP3   OH253527   4.488   1.414   2.262  0.0107 -0.5013 -0.0982
 9139TIP3    H153528   4.533   1.339   2.225  0.7214 -0.6651  1.0702
 9139TIP3    H253529   4.395   1.397   2.245  0.0656 -2.1530  1.0444
 9140TIP3   OH253530   3.611   3.280   7.061  0.7133  0.3908  0.4775
 9140TIP3    H153531   3.638   3.336   7.134 -0.4901 -0.2941  1.4800
 9140TIP3    H253532   3.625   3.335   6.984  2.9826  0.7783  1.0809
 9141TIP3   OH253533   1.748   5.191   6.708  1.0335  0.1197 -0.4117
 9141TIP3    H153534   1.743   5.280   6.743  1.4845  1.6553 -3.8434
 9141TIP3    H253535   1.838   5.164   6.724  0.9068  0.2529  0.6089
 9142TIP3   OH253536   3.017   5.173   0.323 -0.1571  0.4368  0.3471
 9142TIP3    H153537   3.072   5.097   0.342  1.9710  1.9551  0.6869
 9142TIP3    H253538   2.959   5.180   0.399 -0.2657 -0.7340  0.3883
 9143TIP3   OH253539   0.827   7.915   6.516 -0.6189  0.2242  0.1054
 9143TIP3    H153540   0.850   7.871   6.599  0.3815  1.1384  0.3250
 9143TIP3    H253541   0.909   7.953   6.485 -1.0451  0.1345 -1.1819
 9144TIP3   OH253542   6.206   7.315   0.026  0.3497  0.3496  0.3924
 9144TIP3    H153543   6.227   7.401   0.064 -0.1818 -0.0166  1.5664
 9144TIP3    H253544   6.111   7.309   0.034  0.4067 -0.4495  0.5457
 9145TIP3   OH253545   7.999   5.327   7.481 -0.1761  0.8306 -0.1469
 9145TIP3    H153546   8.040   5.409   7.508  0.1414  0.0261  2.0069
 9145TIP3    H253547   8.022   5.265   7.550 -1.3047 -0.8082 -1.1735
 9146TIP3   OH253548   7.025   7.704   5.480 -0.2785  0.3711 -0.2446
 9146TIP3    H153549   7.090   7.638   5.505 -1.4912 -1.0108 -0.5889
 9146TIP3    H253550   7.070   7.761   5.418  0.5299 -0.7354 -0.7006
 9147TIP3   OH253551   4.024   2.779   0.001 -0.0245  0.7783 -0.3660
 9147TIP3    H153552   3.951   2.720   0.015  0.5894  0.0576 -0.1331
 9147TIP3    H253553   4.054   2.802   0.089  2.0199 -1.4749 -0.3588
 9148TIP3   OH253554   5.418   0.281   7.908  0.0842  0.2200 -0.1640
 9148TIP3    H153555   5.472   0.203   7.896  0.5061  0.5188 -0.2019
 9148TIP3    H253556   5.479   0.350   7.934  0.1238  1.1654 -2.4487
 9149TIP3   OH253557   4.458   1.835   7.491  0.6078  0.3606 -0.0885
 9149TIP3    H153558   4.526   1.796   7.546  0.9062  3.1968  1.7635
 9149TIP3    H253559   4.376   1.807   7.532  0.7289 -0.3668 -0.3273
 9150TIP3   OH253560   4.794   4.150   0.175 -0.8612 -0.0130  0.2615
 9150TIP3    H153561   4.840   4.108   0.248 -0.6166  0.8028  0.5858
 9150TIP3    H253562   4.820   4.100   0.098 -0.7823 -0.6159  0.6734
 9151TIP3   OH253563   3.650   6.536   1.539 -0.3696  0.6278 -0.1748
 9151TIP3    H153564   3.669   6.606   1.476  0.0223 -0.1178 -0.9138
 9151TIP3    H253565   3.614   6.581   1.615  0.1785  1.6579 -0.5062
 9152TIP3   OH253566   1.483   1.530   1.659  1.3535 -0.3789  0.0350
 9152TIP3    H153567   1.488   1.568   1.571 -0.6718  3.7618  1.4486
 9152TIP3    H253568   1.418   1.460   1.651  0.1882  0.8000 -1.5862
 9153TIP3   OH253569   0.908   4.470   6.834  0.4811 -0.0914 -0.0719
 9153TIP3    H153570   0.972   4.400   6.834 -0.1488 -0.7154 -1.4163
 9153TIP3    H253571   0.826   4.428   6.860 -0.2395 -0.2675 -2.3676
 9154TIP3   OH253572   4.916   0.387   7.684  0.1131 -0.7153 -0.1877
 9154TIP3    H153573   4.820   0.393   7.686  0.1481  0.0640  2.6568
 9154TIP3    H253574   4.945   0.477   7.669  0.4120 -0.7750  0.0253
 9155TIP3   OH253575   7.884   0.713   6.446  0.3124  0.2096  0.6101
 9155TIP3    H153576   7.845   0.774   6.384  1.1878 -0.9789 -1.2119
 9155TIP3    H253577   7.810   0.672   6.491 -0.2913  2.0160  1.3226
 9156TIP3   OH253578   5.475   3.369   7.638 -0.0401 -0.2658  0.2896
 9156TIP3    H153579   5.477   3.430   7.711  1.2286 -0.2809  0.2886
 9156TIP3    H253580   5.448   3.422   7.563  0.3591  0.1419  0.4299
 9157TIP3   OH253581   1.743   3.636   7.744  0.2088 -0.2596 -0.3528
 9157TIP3    H153582   1.801   3.594   7.807 -0.4669  1.3537  1.4180
 9157TIP3    H253583   1.800   3.696   7.695  0.1486  1.0877  1.1640
 9158TIP3   OH253584   1.635   1.881   6.897  0.8603 -0.4129  0.0226
 9158TIP3    H153585   1.722   1.864   6.860  0.6810  0.4242 -0.8529
 9158TIP3    H253586   1.577   1.879   6.821  0.3522  0.5848  0.3693
 9159TIP3   OH253587   2.976   4.396   6.703  0.4428  0.0800  0.4478
 9159TIP3    H153588   2.989   4.314   6.750 -2.7155 -2.1081 -2.0172
 9159TIP3    H253589   2.905   4.440   6.751 -0.5286 -0.5878 -0.3209
 9160TIP3   OH253590   5.827   4.121   7.663  0.0556 -0.0465 -0.4246
 9160TIP3    H153591   5.851   4.051   7.724 -0.1048  0.5108  0.3059
 9160TIP3    H253592   5.910   4.147   7.623  0.3130  0.1890  0.2399
 9161TIP3   OH253593   5.795   0.897   1.982 -0.0311  0.3202 -1.0046
 9161TIP3    H153594   5.735   0.972   1.980 -0.3916  0.0850  0.2717
 9161TIP3    H253595   5.737   0.821   1.978 -0.1060  0.0124  2.6516
 9162TIP3   OH253596   6.470   6.720   1.774 -0.0385 -0.3477  0.6618
 9162TIP3    H153597   6.485   6.721   1.869  2.8506 -0.5953  0.2808
 9162TIP3    H253598   6.478   6.812   1.748 -0.0442 -0.3807  0.5433
 9163TIP3   OH253599   1.166   2.927   6.967  0.4036 -0.2351 -0.1881
 9163TIP3    H153600   1.133   2.863   6.905  1.0382 -1.5277  0.7574
 9163TIP3    H253601   1.140   2.894   7.053  1.0481  0.5900  0.3517
 9164TIP3   OH253602   6.920   2.976   7.477 -0.1486 -0.1058 -0.4205
 9164TIP3    H153603   6.860   3.034   7.429  0.4303  1.9875  1.2070
 9164TIP3    H253604   6.993   2.963   7.416 -1.4729 -1.3839 -1.8163
 9165TIP3   OH253605   7.957   7.287   2.026  0.3742  0.0453 -0.0569
 9165TIP3    H153606   7.981   7.215   2.085 -0.8009  0.7247  1.2950
 9165TIP3    H253607   8.012   7.273   1.949  0.0634 -2.4155  0.0694
 9166TIP3   OH253608   3.894   3.522   1.540 -0.4462 -0.2353 -0.2368
 9166TIP3    H153609   3.825   3.466   1.575  1.4516 -1.7063  1.4231
 9166TIP3    H253610   3.902   3.497   1.448  0.2653 -2.7073  0.4380
 9167TIP3   OH253611   4.037   7.883   1.186 -0.5184 -0.0630 -0.2312
 9167TIP3    H153612   3.985   7.890   1.106 -0.5508  0.6187 -0.1557
 9167TIP3    H253613   3.979   7.917   1.255 -0.2935 -0.1313 -0.0061
 9168TIP3   OH253614   4.564   2.841   1.872 -0.3623 -0.0384 -0.0010
 9168TIP3    H153615   4.656   2.816   1.863 -0.0424  0.9277  0.4836
 9168TIP3    H253616   4.566   2.927   1.913 -1.4296  0.8095 -1.6273
 9169TIP3   OH253617   6.834   2.886   6.592 -0.1594  0.2428  0.1496
 9169TIP3    H153618   6.877   2.864   6.675  1.3428  0.3432 -0.5614
 9169TIP3    H253619   6.763   2.823   6.584  0.3709 -0.4881  0.9802
 9170TIP3   OH253620   5.298   3.637   6.953  0.3789  0.0322  0.0541
 9170TIP3    H153621   5.303   3.732   6.959  2.5605 -0.1200  2.1144
 9170TIP3    H253622   5.211   3.616   6.987 -1.0785  1.3043 -2.5574
 9171TIP3   OH253623   6.288   4.417   1.575  0.6681 -0.0638  0.4063
 9171TIP3    H153624   6.267   4.350   1.510 -0.6173  0.0438  0.6678
 9171TIP3    H253625   6.377   4.398   1.602  0.9963 -0.5053 -0.9125
 9172TIP3   OH253626   2.663   7.244   1.547 -0.5382 -0.3987 -0.3988
 9172TIP3    H153627   2.739   7.288   1.509 -1.1260  1.9215  0.9013
 9172TIP3    H253628   2.588   7.282   1.501 -1.0882  0.3700  1.0576
 9173TIP3   OH253629   6.587   3.284   6.732 -0.1089  0.4103 -0.2085
 9173TIP3    H153630   6.514   3.280   6.793 -0.4445 -0.8782 -0.6640
 9173TIP3    H253631   6.548   3.264   6.646  0.9794 -1.8751 -0.2390
 9174TIP3   OH253632   4.259   3.724   1.940 -0.2577 -0.4309 -0.6137
 9174TIP3    H153633   4.312   3.651   1.906  1.2815  0.7353 -0.8645
 9174TIP3    H253634   4.290   3.737   2.029  0.4808  0.7561 -1.0114
 9175TIP3   OH253635   6.722   2.656   0.273 -0.3276  0.7300 -0.0074
 9175TIP3    H153636   6.817   2.649   0.267 -0.3655 -0.8433  0.6250
 9175TIP3    H253637   6.706   2.698   0.357 -0.1859 -0.5543  0.6914
 9176TIP3   OH253638   6.085   6.125   0.265  0.0452  0.6745 -0.2042
 9176TIP3    H153639   6.037   6.163   0.191 -0.3605  0.5355 -0.0181
 9176TIP3    H253640   6.115   6.201   0.315  1.0764  0.7938 -0.9705
 9177TIP3   OH253641   2.657   0.101   0.745  0.6022 -0.1164  0.2354
 9177TIP3    H153642   2.736   0.106   0.799  0.5848  0.2548  0.2312
 9177TIP3    H253643   2.648   0.009   0.723 -0.2482 -0.5236  2.1335
 9178TIP3   OH253644   0.111   2.444   1.154  0.8320  0.2435  0.0728
 9178TIP3    H153645   0.037   2.502   1.170 -0.3462 -1.7099  2.3300
 9178TIP3    H253646   0.188   2.492   1.184  0.1475  1.3591  0.0575
 9179TIP3   OH253647   4.234   2.862   7.028  0.3639  0.3118 -0.3902
 9179TIP3    H153648   4.209   2.801   7.098  1.8666 -0.0370 -0.1396
 9179TIP3    H253649   4.226   2.948   7.069  0.9624  0.1255  0.1386
 9180TIP3   OH253650   7.436   2.573   1.672 -0.2200  0.5538 -0.2821
 9180TIP3    H153651   7.403   2.511   1.607  0.3913  0.8908 -0.9249
 9180TIP3    H253652   7.357   2.606   1.715 -0.5489 -0.7305  0.1498
 9181TIP3   OH253653   6.241   5.592   6.867  0.8965 -0.0494 -0.2532
 9181TIP3    H153654   6.173   5.601   6.934  0.1459 -0.2383 -0.9858
 9181TIP3    H253655   6.311   5.544   6.911  1.0940  1.2119  0.8841
 9182TIP3   OH253656   4.479   1.638   7.663 -0.3769 -0.3396  0.6212
 9182TIP3    H153657   4.535   1.596   7.597  1.5818  0.8151  1.4599
 9182TIP3    H253658   4.393   1.598   7.649 -0.1790  0.0971 -2.8286
 9183TIP3   OH253659   1.839   4.863   7.590  0.5601 -0.0640 -0.2188
 9183TIP3    H153660   1.879   4.851   7.676  0.7430  1.5697 -0.0519
 9183TIP3    H253661   1.900   4.818   7.530  1.4555  0.4444  0.2874
 9184TIP3   OH253662   7.965   2.259   0.528  0.4866  0.0929 -0.2736
 9184TIP3    H153663   8.022   2.255   0.605  1.4961 -1.6462 -1.0585
 9184TIP3    H253664   8.023   2.287   0.457 -0.7395  3.1742 -0.2117
 9185TIP3   OH253665   2.057   1.131   1.273  0.0185  0.0255  0.0919
 9185TIP3    H153666   2.065   1.037   1.289 -0.7232 -0.2867 -1.1957
 9185TIP3    H253667   1.985   1.138   1.211 -1.5609  1.6477  1.9708
 9186TIP3   OH253668   5.889   3.602   2.052  0.5388 -0.2688 -0.2307
 9186TIP3    H153669   5.930   3.684   2.024 -0.0238 -0.7630 -2.8602
 9186TIP3    H253670   5.816   3.630   2.108  0.5084  1.0406 -0.8699
 9187TIP3   OH253671   0.666   1.444   7.403 -0.0301 -0.1373 -0.0645
 9187TIP3    H153672   0.674   1.537   7.422  1.2199 -0.3875  0.7597
 9187TIP3    H253673   0.573   1.425   7.415 -0.3407  1.0283 -0.4573
 9188TIP3   OH253674   3.019   1.573   0.212  0.3797 -0.8462 -0.0994
 9188TIP3    H153675   3.093   1.629   0.188  2.6617 -2.2416  3.0120
 9188TIP3    H253676   2.995   1.602   0.300 -0.6277 -2.4969  0.2058
 9189TIP3   OH253677   4.613   6.476   1.318 -0.3739  0.7087 -0.5793
 9189TIP3    H153678   4.707   6.461   1.323 -0.7244 -1.7282  0.4908
 9189TIP3    H253679   4.597   6.500   1.227  1.0725 -0.9500 -1.3286
 9190TIP3   OH253680   5.139   3.106   1.486 -0.1565  0.0341 -0.3453
 9190TIP3    H153681   5.110   3.082   1.399  0.7716  1.0469 -0.9610
 9190TIP3    H253682   5.118   3.199   1.494  0.9506  0.2725 -0.0161
 9191TIP3   OH253683   5.005   3.348   1.399 -0.2670 -0.4293 -0.3588
 9191TIP3    H153684   4.981   3.418   1.338 -0.2407 -0.9051 -0.9199
 9191TIP3    H253685   4.930   3.340   1.457 -0.3652 -0.0911 -0.4357
 9192TIP3   OH253686   3.915   0.258   0.434  0.0079 -0.5992  0.7894
 9192TIP3    H153687   3.902   0.350   0.456 -0.5330  0.0036 -1.7364
 9192TIP3    H253688   4.004   0.253   0.399 -0.8618 -0.3754 -1.6820
 9193TIP3   OH253689   1.189   4.677   7.807  0.0530  0.1622 -0.3139
 9193TIP3    H153690   1.168   4.717   7.891  0.2308  0.9133 -0.6266
 9193TIP3    H253691   1.279   4.648   7.816  0.9540  2.5195 -1.0890
 9194TIP3   OH253692   0.264   3.482   6.790 -0.7280 -0.4231  0.1576
 9194TIP3    H153693   0.185   3.509   6.837 -0.4472 -0.7149  0.8149
 9194TIP3    H253694   0.325   3.457   6.859 -0.1855 -0.5477 -0.3591
 9195TIP3   OH253695   5.861   6.823   1.318  0.0783 -0.3274 -0.5289
 9195TIP3    H153696   5.917   6.849   1.391  0.7473 -2.2030 -0.3230
 9195TIP3    H253697   5.885   6.884   1.248  2.0361 -0.7286 -0.2747
 9196TIP3   OH253698   5.196   5.340   1.185 -0.6743 -0.1812 -0.1403
 9196TIP3    H153699   5.222   5.405   1.120  1.5735 -0.2962  0.5430
 9196TIP3    H253700   5.271   5.281   1.190 -1.8936 -1.7283  0.6437
 9197TIP3   OH253701   1.807   5.808   1.846  0.1416  0.2747 -0.2944
 9197TIP3    H153702   1.776   5.896   1.869  0.9796  0.5270 -0.1229
 9197TIP3    H253703   1.731   5.752   1.860  0.0101  0.7463  1.0005
 9198TIP3   OH253704   5.865   1.204   7.205 -0.0936 -0.1843 -0.5282
 9198TIP3    H153705   5.960   1.194   7.215 -0.0618  1.2398  1.0326
 9198TIP3    H253706   5.855   1.281   7.149 -0.3456 -0.0532 -0.2991
 9199TIP3   OH253707   5.985   7.715   5.749  0.2476 -0.7770  0.1048
 9199TIP3    H153708   5.909   7.734   5.804  0.6163 -0.6352  0.5710
 9199TIP3    H253709   5.948   7.671   5.672 -0.5491  1.0142 -0.6088
 9200TIP3   OH253710   4.137   4.061   0.050  0.1014  0.1087  0.0220
 9200TIP3    H153711   4.056   4.036   0.094  0.6697 -0.8247  0.5775
 9200TIP3    H253712   4.204   4.005   0.090  0.9563  0.5994 -0.6888
 9201TIP3   OH253713   2.759   1.607   1.090 -0.1086 -0.2953 -0.4547
 9201TIP3    H153714   2.841   1.651   1.108 -0.3146  0.0632 -0.3929
 9201TIP3    H253715   2.777   1.515   1.108  1.3787 -0.8583 -3.8950
 9202TIP3   OH253716   5.232   2.514   6.861  0.3675  0.3718 -0.4721
 9202TIP3    H153717   5.147   2.498   6.901  1.0006 -1.4592  0.2376
 9202TIP3    H253718   5.258   2.601   6.894 -0.8617  0.6031 -0.0856
 9203TIP3   OH253719   6.039   1.670   1.872  0.0658 -0.2971 -0.0365
 9203TIP3    H153720   5.980   1.597   1.890  1.1961 -1.2986 -0.2307
 9203TIP3    H253721   6.124   1.642   1.908  0.3522  1.2685  0.6067
 9204TIP3   OH253722   5.640   1.994   0.276  0.2685  0.1433 -0.0113
 9204TIP3    H153723   5.711   1.931   0.279  0.0035 -0.1357  0.5710
 9204TIP3    H253724   5.578   1.964   0.343 -1.6439 -1.1296 -2.1825
 9205TIP3   OH253725   6.423   8.058   6.130  0.1584  0.2090  0.1905
 9205TIP3    H153726   6.355   8.042   6.195  0.3578  0.8366  0.5646
 9205TIP3    H253727   6.416   7.985   6.069 -0.2188 -0.2361  0.7599
 9206TIP3   OH253728   3.944   1.607   6.885 -0.4931  0.4708 -0.4887
 9206TIP3    H153729   3.949   1.703   6.886  3.7034  0.4367 -0.9020
 9206TIP3    H253730   3.868   1.587   6.940 -1.0927  3.9743  0.2581
 9207TIP3   OH253731   1.948   4.588   7.411 -0.7267 -0.2836 -0.1183
 9207TIP3    H153732   2.018   4.650   7.389  0.3334 -1.4421 -0.1255
 9207TIP3    H253733   1.910   4.564   7.327 -0.4598 -0.4044 -0.2057
 9208TIP3   OH253734   1.672   7.388   0.163 -0.2876 -0.2474  0.0181
 9208TIP3    H153735   1.583   7.366   0.192 -0.2510 -1.5290 -0.7946
 9208TIP3    H253736   1.662   7.474   0.122 -1.1354 -0.3463 -0.0129
 9209TIP3   OH253737   3.045   5.192   7.526  0.0976 -0.2485 -0.2870
 9209TIP3    H153738   3.022   5.245   7.602  2.1861  0.7036 -0.2441
 9209TIP3    H253739   3.096   5.120   7.563  0.5159 -0.1743 -0.7172
 9210TIP3   OH253740   7.746   5.139   6.307  0.2322 -0.3089 -0.4572
 9210TIP3    H153741   7.668   5.168   6.355  2.0154 -0.2864  2.7137
 9210TIP3    H253742   7.758   5.204   6.239 -1.2306  0.9744  0.4402
 9211TIP3   OH253743   6.379   7.136   6.582  0.9418  0.2785  0.5597
 9211TIP3    H153744   6.409   7.203   6.520  2.3165  0.4408  1.3556
 9211TIP3    H253745   6.291   7.114   6.552  0.6577  2.0390 -0.0646
 9212TIP3   OH253746   2.572   1.376   0.231  0.0649  0.1133 -0.2130
 9212TIP3    H153747   2.649   1.401   0.181  0.9562  0.0439  1.0552
 9212TIP3    H253748   2.531   1.459   0.255 -1.7878  0.1374 -3.0476
 9213TIP3   OH253749   2.876   7.487   7.883  0.1096 -0.0913 -0.4838
 9213TIP3    H153750   2.808   7.551   7.862 -0.8417 -0.2174  1.8690
 9213TIP3    H253751   2.843   7.405   7.848  0.0620  0.2055 -1.1602
 9214TIP3   OH253752   1.833   1.010   1.045 -0.2679  0.3095  0.0232
 9214TIP3    H153753   1.857   0.952   0.973  0.6437  1.0370 -0.2644
 9214TIP3    H253754   1.829   0.953   1.122 -2.0576 -0.6329 -0.7144
 9215TIP3   OH253755   0.272   3.547   0.643 -0.5582  0.7536 -0.6195
 9215TIP3    H153756   0.223   3.623   0.614 -0.2782  1.4703  0.7170
 9215TIP3    H253757   0.296   3.566   0.734 -0.2582 -0.8108 -0.3293
 9216TIP3   OH253758   5.210   3.961   0.712 -0.8522  0.0708 -0.3613
 9216TIP3    H153759   5.202   3.879   0.663 -0.0135 -0.9325  1.0792
 9216TIP3    H253760   5.125   3.970   0.757 -0.5307 -0.6728  0.4205
 9217TIP3   OH253761   3.175   0.750   6.593 -0.1121  0.0906 -0.4173
 9217TIP3    H153762   3.230   0.692   6.646  1.5118  0.7469 -1.3043
 9217TIP3    H253763   3.148   0.820   6.652  1.9227  0.9811 -0.4512
 9218TIP3   OH253764   5.646   6.772   0.648 -0.2636 -0.0665 -0.9143
 9218TIP3    H153765   5.611   6.851   0.607 -0.6016  0.9450  1.1556
 9218TIP3    H253766   5.626   6.783   0.741  2.9670 -0.7872  0.0109
 9219TIP3   OH253767   6.060   6.818   1.557  0.1835  0.0396  0.4339
 9219TIP3    H153768   6.081   6.771   1.638  0.0059  0.8782  0.9899
 9219TIP3    H253769   6.145   6.846   1.523  0.1979  0.5585  0.8842
 9220TIP3   OH253770   6.222   2.693   6.796  0.1629  0.3872  0.3605
 9220TIP3    H153771   6.163   2.676   6.723  0.4817 -1.1782  0.4462
 9220TIP3    H253772   6.227   2.789   6.800  0.6952  0.5274 -2.0844
 9221TIP3   OH253773   5.618   2.917   6.649  0.0339 -0.6468 -0.2295
 9221TIP3    H153774   5.531   2.942   6.617 -0.0700 -1.8140 -0.9437
 9221TIP3    H253775   5.678   2.956   6.586  0.0653  0.4115  0.4305
 9222TIP3   OH253776   2.442   7.544   0.572 -0.5266 -0.4307 -0.7521
 9222TIP3    H153777   2.530   7.559   0.607 -0.1130 -0.7110 -1.6418
 9222TIP3    H253778   2.439   7.449   0.555 -0.8370 -0.3523 -1.1468
 9223TIP3   OH253779   1.423   2.384   6.380  0.0262  0.3022 -0.1789
 9223TIP3    H153780   1.359   2.315   6.394 -0.9175  0.6204 -2.4571
 9223TIP3    H253781   1.507   2.339   6.376 -0.4141 -0.5284 -0.1956
 9224TIP3   OH253782   6.863   6.007   7.650 -0.5939  0.1775 -0.0720
 9224TIP3    H153783   6.949   5.988   7.614 -0.3425  0.3152  0.4356
 9224TIP3    H253784   6.803   6.002   7.576  0.1381  2.1493 -0.8481
 9225TIP3   OH253785   5.933   7.137   7.789  0.7523  0.1047 -0.1901
 9225TIP3    H153786   5.917   7.168   7.879  1.8885 -2.3161  0.9301
 9225TIP3    H253787   5.985   7.207   7.749 -0.6817  1.7146  0.6430
 9226TIP3   OH253788   5.013   2.054   6.656  0.1100  0.1786 -0.0187
 9226TIP3    H153789   4.974   1.969   6.639 -0.1386  0.3991 -0.5692
 9226TIP3    H253790   5.076   2.067   6.585 -0.0163  0.5519 -0.0669
 9227TIP3   OH253791   7.427   7.467   1.359  0.2910 -0.3555 -0.2988
 9227TIP3    H153792   7.486   7.540   1.342 -0.3576  0.3826  0.5663
 9227TIP3    H253793   7.454   7.399   1.296  1.9769 -0.0038  0.0211
 9228TIP3   OH253794   1.948   2.888   7.418  0.0666  0.2148 -0.4519
 9228TIP3    H153795   1.933   2.968   7.468 -2.8677  0.6340 -1.7876
 9228TIP3    H253796   1.984   2.918   7.335  1.4712 -0.1432  0.0038
 9229TIP3   OH253797   5.114   7.183   6.902 -0.0449  0.7330 -0.5670
 9229TIP3    H153798   5.097   7.175   6.808  1.2638  0.0779 -0.7713
 9229TIP3    H253799   5.089   7.273   6.924 -1.2244  0.6159 -1.3363
 9230TIP3   OH253800   7.829   5.598   0.175 -0.2745 -0.3804 -0.0093
 9230TIP3    H153801   7.886   5.649   0.117  0.3664 -0.4353  0.5632
 9230TIP3    H253802   7.744   5.597   0.130 -0.1908  0.8244 -0.2416
 9231TIP3   OH253803   4.548   0.247   7.399 -0.2890  0.1196 -0.1840
 9231TIP3    H153804   4.467   0.279   7.438 -1.1205 -0.0834 -1.6670
 9231TIP3    H253805   4.569   0.168   7.449 -0.8361  0.3416  0.4093
 9232TIP3   OH253806   8.075   1.278   6.531  0.0037  0.0877 -0.1657
 9232TIP3    H153807   8.106   1.224   6.603 -2.3853 -1.9064 -0.5000
 9232TIP3    H253808   8.059   1.364   6.570 -0.1155 -0.6190  1.3949
 9233TIP3   OH253809   3.705   5.112   6.648 -0.3396 -0.3092 -0.3964
 9233TIP3    H153810   3.627   5.057   6.643 -0.0943 -0.6596 -0.3932
 9233TIP3    H253811   3.738   5.098   6.736 -1.2866  1.2442  0.2612
 9234TIP3   OH253812   4.480   1.602   0.249 -0.0116 -0.0846  0.1366
 9234TIP3    H153813   4.451   1.582   0.160 -1.6437  0.3454  0.5379
 9234TIP3    H253814   4.441   1.533   0.303 -0.6214  0.7023  0.7370
 9235TIP3   OH253815   2.203   5.988   2.352 -0.1287 -0.5448  0.1815
 9235TIP3    H153816   2.112   6.008   2.332 -0.3715 -1.7080  0.0741
 9235TIP3    H253817   2.240   6.072   2.379 -1.1469  0.0014 -0.0653
 9236TIP3   OH253818   7.057   7.936   1.392  0.0344 -0.1632 -0.0069
 9236TIP3    H153819   7.099   8.020   1.409 -0.0403 -0.2636  0.7278
 9236TIP3    H253820   7.094   7.906   1.310 -1.1646  1.3799 -1.1653
 9237TIP3   OH253821   3.604   5.808   6.604 -0.0819  0.0533  0.6975
 9237TIP3    H153822   3.650   5.771   6.680 -0.0050 -0.0246  0.6127
 9237TIP3    H253823   3.518   5.767   6.607 -0.2147  0.3502  0.9717
 9238TIP3   OH253824   2.666   1.527   1.943  0.3800  0.2466  0.4695
 9238TIP3    H153825   2.704   1.441   1.960  1.4820  0.6753  0.2821
 9238TIP3    H253826   2.677   1.575   2.025  1.3875  0.7642  0.0602
 9239TIP3   OH253827   7.590   3.366   7.512  0.0155  0.2944 -0.4413
 9239TIP3    H153828   7.538   3.297   7.470 -2.4831 -0.5551  3.5207
 9239TIP3    H253829   7.649   3.320   7.571  0.8832  1.5177 -0.2983
 9240TIP3   OH253830   5.250   4.892   7.796 -0.7547  0.0403 -0.1928
 9240TIP3    H153831   5.168   4.941   7.788 -1.0847 -0.1940  1.3506
 9240TIP3    H253832   5.299   4.938   7.865  0.9042  0.7932 -1.7773
 9241TIP3   OH253833   2.486   0.307   1.927  0.4907  0.5315 -0.4075
 9241TIP3    H153834   2.463   0.400   1.928 -0.1756  0.4285 -2.0929
 9241TIP3    H253835   2.405   0.263   1.953  0.2165  0.3745 -1.4632
 9242TIP3   OH253836   7.660   4.670   7.355  0.4836 -0.0236  0.1480
 9242TIP3    H153837   7.639   4.641   7.444 -1.0434  0.8304  0.1146
 9242TIP3    H253838   7.593   4.628   7.301  2.7563 -2.4208 -1.0083
 9243TIP3   OH253839   1.864   1.886   7.581  0.0747 -0.1301 -0.9122
 9243TIP3    H153840   1.869   1.910   7.488  0.1988  1.0976 -0.6079
 9243TIP3    H253841   1.928   1.943   7.623  1.6661 -2.2169 -0.3423
 9244TIP3   OH253842   3.601   5.493   6.412  0.0013  0.1970  0.4464
 9244TIP3    H153843   3.635   5.576   6.378  0.5057 -0.8518 -1.7852
 9244TIP3    H253844   3.552   5.455   6.339  0.6727 -1.9492  1.0320
 9245TIP3   OH253845   3.172   5.301   1.148  0.8843 -0.7621 -0.3321
 9245TIP3    H153846   3.235   5.357   1.193 -1.1723  1.3178  0.1480
 9245TIP3    H253847   3.115   5.362   1.101 -0.4132 -2.5735 -1.2238
 9246TIP3   OH253848   5.965   5.138   6.553  0.7654  0.7570  0.1083
 9246TIP3    H153849   6.014   5.116   6.632  0.7631  0.5445  0.0520
 9246TIP3    H253850   6.023   5.194   6.503  1.4107 -0.4230 -0.4963
 9247TIP3   OH253851   5.998   4.467   0.580 -0.1673 -0.2083 -0.0761
 9247TIP3    H153852   6.077   4.494   0.533 -0.3209 -0.2321 -0.3507
 9247TIP3    H253853   5.992   4.372   0.564 -0.1911 -0.2241  0.0306
 9248TIP3   OH253854   3.864   1.993   7.456 -0.2049  0.1412  0.5419
 9248TIP3    H153855   3.844   1.966   7.367 -1.6589 -0.3016  0.9811
 9248TIP3    H253856   3.935   1.935   7.483 -1.5299 -1.5543  0.5664
 9249TIP3   OH253857   6.964   1.700   7.344  0.4625 -0.1300  0.4085
 9249TIP3    H153858   6.937   1.616   7.307  1.3147 -1.0019  1.6999
 9249TIP3    H253859   6.943   1.764   7.276 -0.2867 -1.3654 -0.5630
 9250TIP3   OH253860   1.090   6.397   0.315 -0.2714  0.0554 -0.6573
 9250TIP3    H153861   1.118   6.353   0.396  0.3757  0.1653 -0.8135
 9250TIP3    H253862   1.002   6.430   0.334  0.3863  1.2473  0.4659
 9251TIP3   OH253863   2.147   2.351   1.759 -0.3891  0.0106  0.1789
 9251TIP3    H153864   2.137   2.312   1.846 -0.9338 -1.1180 -0.3775
 9251TIP3    H253865   2.177   2.441   1.777 -0.6745 -0.1392  1.5309
 9252TIP3   OH253866   8.054   6.468   7.004 -0.1712  0.2410  0.3217
 9252TIP3    H153867   8.047   6.424   6.920 -1.3355  0.5274  0.2571
 9252TIP3    H253868   8.019   6.406   7.067 -0.8947  0.6763  0.3591
 9253TIP3   OH253869   5.805   3.025   1.771  0.9827  0.5708 -0.2240
 9253TIP3    H153870   5.759   3.015   1.855 -1.9536 -0.7399 -1.8404
 9253TIP3    H253871   5.858   2.945   1.764  1.1033  0.6004  0.2930
 9254TIP3   OH253872   1.782   2.215   7.179 -0.1942  0.2432  0.0266
 9254TIP3    H153873   1.833   2.213   7.098  0.1209  0.4691  0.2187
 9254TIP3    H253874   1.722   2.289   7.168  0.9761  1.3121  0.6760
 9255TIP3   OH253875   5.727   5.532   5.959 -0.4469  0.4017  0.9947
 9255TIP3    H153876   5.736   5.455   5.902  1.1966  0.0594  1.6431
 9255TIP3    H253877   5.720   5.606   5.898  0.2180 -0.0673  0.3254
 9256TIP3   OH253878   4.047   4.247   6.207  0.8459  0.4922 -0.2095
 9256TIP3    H153879   4.054   4.192   6.284  0.4530  0.5289 -0.1453
 9256TIP3    H253880   4.069   4.189   6.134 -1.2099 -0.2425 -0.3251
 9257TIP3   OH253881   0.171   2.059   7.837 -0.0085 -0.1035  0.3309
 9257TIP3    H153882   0.102   2.122   7.857 -0.8932 -0.5039 -1.2378
 9257TIP3    H253883   0.155   1.986   7.898 -0.4756  0.1561  0.5271
 9258TIP3   OH253884   7.063   2.106   1.541 -0.1828 -0.0164  0.0490
 9258TIP3    H153885   6.996   2.079   1.479  0.3219  0.5256 -0.7558
 9258TIP3    H253886   7.125   2.033   1.544  0.3687  0.3878 -0.9456
 9259TIP3   OH253887   5.192   3.327   7.574  0.3743 -0.1296 -0.0733
 9259TIP3    H153888   5.239   3.268   7.515 -1.1949 -0.2034 -1.3160
 9259TIP3    H253889   5.176   3.274   7.653 -0.9108 -1.3934 -1.1246
 9260TIP3   OH253890   3.398   5.577   0.816  0.7230  0.2046 -0.2821
 9260TIP3    H153891   3.446   5.643   0.866  1.2576 -1.1393  1.0459
 9260TIP3    H253892   3.454   5.500   0.819 -0.7313 -0.8848 -0.2120
 9261TIP3   OH253893   1.392   5.759   6.837  0.2149  0.2025 -0.6026
 9261TIP3    H153894   1.389   5.836   6.780  1.8340  0.2806 -0.6072
 9261TIP3    H253895   1.316   5.770   6.894 -0.8292  0.6757 -1.9972
 9262TIP3   OH253896   5.980   6.869   6.092 -0.5212 -0.0149  0.2792
 9262TIP3    H153897   5.979   6.906   6.003  1.0124 -2.3412 -0.8078
 9262TIP3    H253898   5.904   6.811   6.095 -0.8712  0.4576  0.6964
 9263TIP3   OH253899   5.919   7.321   0.047 -0.2746 -0.2987 -0.3546
 9263TIP3    H153900   5.892   7.412   0.035  0.0327 -0.2968 -1.0385
 9263TIP3    H253901   5.908   7.305   0.141 -0.2360  0.4709 -0.2163
 9264TIP3   OH253902   1.596   6.718   0.116  0.2007 -0.0786  0.4258
 9264TIP3    H153903   1.633   6.724   0.204  0.0419  0.8771  0.4317
 9264TIP3    H253904   1.658   6.763   0.060 -0.9820  1.7086  0.4616
 9265TIP3   OH253905   0.633   3.410   7.354  0.1021  0.0436 -0.1582
 9265TIP3    H153906   0.559   3.389   7.411 -0.3828 -0.4489 -0.9402
 9265TIP3    H253907   0.627   3.345   7.284  1.9678 -0.7442  0.3621
 9266TIP3   OH253908   0.949   4.317   0.166 -0.7750 -0.1890 -0.0053
 9266TIP3    H153909   1.039   4.286   0.176 -1.1520 -0.5997  3.0230
 9266TIP3    H253910   0.943   4.344   0.074  1.5711 -2.7766 -1.0505
 9267TIP3   OH253911   7.740   3.336   6.312 -0.0650  0.0515 -0.2736
 9267TIP3    H153912   7.807   3.405   6.317 -0.2993  0.3324 -0.8635
 9267TIP3    H253913   7.732   3.319   6.218 -0.3149 -0.4816 -0.1544
 9268TIP3   OH253914   1.974   6.963   7.287  0.0870 -0.6203  0.4259
 9268TIP3    H153915   1.910   6.928   7.348 -0.7498 -0.3540 -0.2718
 9268TIP3    H253916   1.987   6.892   7.223 -0.8479 -0.0557 -0.4166
 9269TIP3   OH253917   7.607   6.399   1.117 -0.0289  0.6723 -0.4472
 9269TIP3    H153918   7.642   6.331   1.060 -0.8962  0.2373 -0.4773
 9269TIP3    H253919   7.549   6.450   1.060 -0.8124  0.3023  0.0111
 9270TIP3   OH253920   6.542   7.494   0.594  1.1238 -0.1276  0.0839
 9270TIP3    H153921   6.577   7.476   0.681  0.2394 -1.3916  0.2111
 9270TIP3    H253922   6.557   7.413   0.544 -0.8715 -0.4479 -0.0699
 9271TIP3   OH253923   8.031   2.822   1.208  0.4431  0.0076 -0.3124
 9271TIP3    H153924   7.977   2.753   1.248 -0.3967  1.1266  0.5857
 9271TIP3    H253925   8.117   2.811   1.248  0.5224 -0.9529 -0.7186
 9272TIP3   OH253926   4.929   4.095   0.434 -0.2637 -0.7203  0.4066
 9272TIP3    H153927   5.000   4.135   0.484 -1.8875  2.1588  0.5997
 9272TIP3    H253928   4.860   4.079   0.499 -0.3182 -2.2810  0.0039
 9273TIP3   OH253929   3.842   7.376   0.528 -0.0353 -0.1217 -0.5243
 9273TIP3    H153930   3.819   7.444   0.465 -1.1223  0.7991  0.8029
 9273TIP3    H253931   3.854   7.297   0.476  0.2072  0.8489 -1.9869
 9274TIP3   OH253932   4.845   6.479   6.614 -0.2385  0.0956 -0.0437
 9274TIP3    H153933   4.937   6.454   6.625 -0.9498 -3.6089 -1.0776
 9274TIP3    H253934   4.817   6.509   6.700  1.3608 -1.0043  0.9115
 9275TIP3   OH253935   2.556   6.191   0.522  0.1036  0.3174  0.3309
 9275TIP3    H153936   2.565   6.096   0.532  3.1212  0.2353 -1.9365
 9275TIP3    H253937   2.507   6.203   0.441 -1.0685  0.7731  1.0716
 9276TIP3   OH253938   5.006   4.992   5.223  0.1317 -0.3132  0.7121
 9276TIP3    H153939   4.992   5.044   5.144 -1.4402 -2.0545 -0.2333
 9276TIP3    H253940   4.942   5.026   5.286 -0.8776 -1.0423  0.1040
 9277TIP3   OH253941   5.618   1.396   0.373 -0.3735  0.4243 -0.1651
 9277TIP3    H153942   5.629   1.489   0.357 -1.2533  0.8668  1.6071
 9277TIP3    H253943   5.697   1.370   0.421  0.5762 -0.1215 -1.9117
 9278TIP3   OH253944   3.364   2.643   7.023  0.5907 -0.0216 -0.2527
 9278TIP3    H153945   3.417   2.566   7.002  1.3945  0.1869  0.8979
 9278TIP3    H253946   3.311   2.616   7.098 -0.3990  0.0081 -0.9335
 9279TIP3   OH253947   3.215   2.480   1.014  0.0170 -0.2726 -0.0838
 9279TIP3    H153948   3.241   2.404   1.067  2.0348  0.3783 -0.0597
 9279TIP3    H253949   3.197   2.443   0.927  0.1318 -0.8918  0.1507
 9280TIP3   OH253950   5.361   6.823   1.147  0.3980 -0.3992  0.2934
 9280TIP3    H153951   5.406   6.850   1.067 -1.1209 -2.7714 -1.4854
 9280TIP3    H253952   5.328   6.905   1.185  1.0193  0.7799 -1.5850
 9281TIP3   OH253953   0.809   0.636   0.708  0.7985  0.6488  0.2796
 9281TIP3    H153954   0.797   0.546   0.737  0.0046  0.3171 -0.9996
 9281TIP3    H253955   0.809   0.687   0.789 -0.1530 -0.3495  0.9379
 9282TIP3   OH253956   4.143   4.315   7.856 -0.1245  0.2377  0.1086
 9282TIP3    H153957   4.153   4.231   7.900 -0.3981  0.4494  0.5931
 9282TIP3    H253958   4.177   4.379   7.919 -1.0710  0.6053  0.2771
 9283TIP3   OH253959   1.196   2.530   6.703 -0.3803  0.3027  0.4961
 9283TIP3    H153960   1.234   2.443   6.692 -1.1188  0.1210 -0.8847
 9283TIP3    H253961   1.188   2.541   6.798 -0.5891 -1.2745  0.6923
 9284TIP3   OH253962   3.714   0.143   2.199  0.0938 -0.4617 -0.0643
 9284TIP3    H153963   3.691   0.059   2.160  1.2066 -0.4879 -0.6791
 9284TIP3    H253964   3.787   0.175   2.147  0.4374  0.3455  0.8900
 9285TIP3   OH253965   4.655   0.287   7.062 -1.1915 -0.1977  0.3982
 9285TIP3    H153966   4.621   0.367   7.102  0.4548  0.1124  1.2565
 9285TIP3    H253967   4.579   0.249   7.016 -1.4312  3.3482 -2.6078
 9286TIP3   OH253968   6.524   0.309   7.686 -0.6365  0.4679 -0.1854
 9286TIP3    H153969   6.458   0.352   7.631 -1.8469 -0.1892  0.7130
 9286TIP3    H253970   6.478   0.236   7.726  2.0133 -3.9117 -4.0623
 9287TIP3   OH253971   5.020   6.010   2.261 -0.0809  0.3378  0.3353
 9287TIP3    H153972   5.019   5.978   2.351  0.5851  1.2595  0.6788
 9287TIP3    H253973   5.049   5.934   2.210 -1.5399 -0.5243  0.7347
 9288TIP3   OH253974   6.809   4.400   5.745 -0.4135  0.5564  0.6057
 9288TIP3    H153975   6.751   4.381   5.819 -1.4323 -0.8667 -0.5014
 9288TIP3    H253976   6.837   4.313   5.714 -1.9615  0.9122 -2.1519
 9289TIP3   OH253977   6.071   7.524   7.405  0.3213 -0.4232 -0.1860
 9289TIP3    H153978   6.097   7.569   7.485  1.8305 -1.2153 -0.1859
 9289TIP3    H253979   6.113   7.574   7.335 -0.0669 -0.3856 -0.3962
 9290TIP3   OH253980   7.942   5.873   1.478 -0.5275  0.3788 -0.2349
 9290TIP3    H153981   7.975   5.807   1.417  0.3100  1.6277 -1.1836
 9290TIP3    H253982   8.020   5.915   1.513 -1.0328  0.3969  0.9010
 9291TIP3   OH253983   3.510   1.938   1.605  0.4649  0.1860  0.9173
 9291TIP3    H153984   3.505   1.989   1.686 -0.4120  1.5126  0.0747
 9291TIP3    H253985   3.429   1.960   1.558  1.2423 -0.0550 -0.5948
 9292TIP3   OH253986   5.557   4.488   1.938  0.4796  0.0829 -0.0589
 9292TIP3    H153987   5.536   4.500   2.031  2.1714  1.4034  0.2012
 9292TIP3    H253988   5.649   4.463   1.937  0.6733  0.7751 -1.4152
 9293TIP3   OH253989   1.803   4.960   0.102 -0.4427 -0.4854  0.0135
 9293TIP3    H153990   1.817   5.044   0.144 -0.9522 -0.1620 -0.4524
 9293TIP3    H253991   1.729   4.974   0.043  1.1309 -0.5218 -2.0956
 9294TIP3   OH253992   1.394   6.617   7.182 -0.1870  0.4411  0.0895
 9294TIP3    H153993   1.393   6.713   7.190  0.8392  0.3991  1.0042
 9294TIP3    H253994   1.361   6.600   7.094 -1.7566  1.5639  0.4096
 9295TIP3   OH253995   5.832   3.515   7.219  0.3268  0.1395  0.5026
 9295TIP3    H153996   5.904   3.473   7.267  0.3364 -0.7438 -0.2641
 9295TIP3    H253997   5.830   3.605   7.254 -0.5361 -0.7875  3.1219
 9296TIP3   OH253998   5.776   5.005   0.922 -0.5439 -0.2042  0.5271
 9296TIP3    H153999   5.822   5.084   0.950 -0.3407 -0.1702  0.1127
 9296TIP3    H254000   5.845   4.940   0.911 -0.8371 -0.8332  2.1143
 9297TIP3   OH254001   6.308   6.469   7.494  0.6653  0.5087  0.2798
 9297TIP3    H154002   6.349   6.511   7.570  1.4129  1.5221 -0.6479
 9297TIP3    H254003   6.303   6.538   7.428 -0.3258 -0.2490 -0.4694
 9298TIP3   OH254004   4.432   2.295   0.872  0.7050  0.6929 -0.0553
 9298TIP3    H154005   4.496   2.299   0.943  1.3121 -1.0953 -0.4478
 9298TIP3    H254006   4.396   2.206   0.877 -1.5992  1.5621 -0.0074
 9299TIP3   OH254007   7.950   3.120   0.187  0.5237 -0.0738  0.0354
 9299TIP3    H154008   8.043   3.107   0.174  0.5170 -0.4455  0.3464
 9299TIP3    H254009   7.945   3.175   0.266  0.4610 -0.6083  0.4069
 9300TIP3   OH254010   3.897   2.643   7.257  0.1061  0.6390 -0.0715
 9300TIP3    H154011   3.838   2.717   7.240 -1.1355 -0.7030 -2.0010
 9300TIP3    H254012   3.915   2.607   7.171  1.6222 -0.6271  0.7383
 9301TIP3   OH254013   4.635   0.205   1.687  0.0120  0.0335 -0.1566
 9301TIP3    H154014   4.731   0.210   1.692  0.1935 -2.4199  0.1748
 9301TIP3    H254015   4.612   0.135   1.748 -1.8503 -0.6468 -1.5570
 9302TIP3   OH254016   5.032   5.596   6.398  0.0807 -0.2984 -0.1904
 9302TIP3    H154017   4.968   5.600   6.469  1.8591  0.1019  1.4714
 9302TIP3    H254018   5.113   5.567   6.440  1.1991 -0.0641 -2.0704
 9303TIP3   OH254019   5.022   3.787   1.512  0.0098  0.0290 -0.2401
 9303TIP3    H154020   5.095   3.841   1.543  1.2399 -1.0949 -1.1021
 9303TIP3    H254021   5.015   3.718   1.578 -2.1865  1.6591  1.3842
 9304TIP3   OH254022   7.582   2.766   7.412 -0.4297 -0.1266 -0.0684
 9304TIP3    H154023   7.637   2.842   7.432  0.1429 -0.7244  0.6872
 9304TIP3    H254024   7.495   2.791   7.443 -0.6957  0.9463 -1.5446
 9305TIP3   OH254025   2.604   0.795   1.147  0.0549  0.1728 -0.6459
 9305TIP3    H154026   2.628   0.859   1.081 -1.2398  1.8667  0.4380
 9305TIP3    H254027   2.676   0.732   1.147  1.6618  1.9205 -1.3693
 9306TIP3   OH254028   4.307   6.431   6.305  0.1031 -0.2081 -0.4051
 9306TIP3    H154029   4.284   6.400   6.217 -1.3069 -1.6282  0.4142
 9306TIP3    H254030   4.324   6.525   6.294 -0.9098 -0.1822 -2.0466
 9307TIP3   OH254031   6.707   7.625   6.679 -0.0030  0.0179 -0.3551
 9307TIP3    H154032   6.763   7.698   6.704  1.1029 -0.8111 -0.3476
 9307TIP3    H254033   6.645   7.663   6.617  0.9399  0.8400 -0.8203
 9308TIP3   OH254034   7.745   4.896   7.858 -0.0835 -0.0436 -0.0937
 9308TIP3    H154035   7.795   4.879   7.778  1.3344 -0.0766  0.7579
 9308TIP3    H254036   7.742   4.991   7.866 -4.7015  0.3378 -2.8229
 9309TIP3   OH254037   0.803   0.669   1.327  0.2721 -0.9844 -0.5783
 9309TIP3    H154038   0.725   0.704   1.370 -0.0698 -1.6331 -0.6439
 9309TIP3    H254039   0.876   0.700   1.379 -0.0526 -0.5827 -0.3622
 9310TIP3   OH254040   1.950   0.730   0.643 -0.0628 -0.0619 -0.5602
 9310TIP3    H154041   1.888   0.698   0.707  0.3546 -2.4748 -1.2673
 9310TIP3    H254042   1.947   0.826   0.652 -4.0479 -0.0143 -0.7827
 9311TIP3   OH254043   3.941   2.930   6.606  0.4072  0.6517 -0.4752
 9311TIP3    H154044   3.887   2.963   6.678  0.1931  1.0862 -0.8331
 9311TIP3    H254045   4.011   2.881   6.649 -1.3006 -1.5627 -0.0292
 9312TIP3   OH254046   3.032   3.179   6.574  0.2902 -0.0549 -0.1777
 9312TIP3    H154047   3.023   3.228   6.656  1.6064  0.4395 -0.3042
 9312TIP3    H254048   2.943   3.152   6.552  0.1222 -2.2361  2.6308
 9313TIP3   OH254049   1.317   4.820   0.326  0.4035 -0.0626  0.1352
 9313TIP3    H154050   1.356   4.763   0.260  2.0191  2.0352 -0.8334
 9313TIP3    H254051   1.272   4.887   0.275 -0.2248  0.3551  1.2152
 9314TIP3   OH254052   0.043   1.476   0.855  0.1401  0.2276 -0.0851
 9314TIP3    H154053   0.044   1.385   0.883  0.7203  0.6420  1.3100
 9314TIP3    H254054   0.132   1.494   0.825  0.2257  0.5199  0.3244
 9315TIP3   OH254055   4.812   5.617   6.624  0.9135 -0.4451  0.0173
 9315TIP3    H154056   4.794   5.594   6.714  1.3242 -0.3224  0.1341
 9315TIP3    H254057   4.853   5.704   6.629  1.6601 -0.7708 -0.2189
 9316TIP3   OH254058   3.555   4.002   7.641 -0.3246 -0.1016 -0.4253
 9316TIP3    H154059   3.600   4.028   7.560 -0.2941 -2.0691 -1.1159
 9316TIP3    H254060   3.465   3.988   7.614 -0.9034  1.6653  0.4780
 9317TIP3   OH254061   5.293   2.831   7.645  0.5430 -0.6932  0.0589
 9317TIP3    H154062   5.278   2.854   7.737 -1.9364  0.8307 -0.6312
 9317TIP3    H254063   5.260   2.742   7.636  0.0702 -0.5650  0.4903
 9318TIP3   OH254064   4.936   7.373   6.569 -0.4406  0.3244 -0.4654
 9318TIP3    H154065   5.023   7.346   6.597 -1.0703 -0.8483  0.4499
 9318TIP3    H254066   4.951   7.420   6.487  1.4828  3.7633  1.6264
 9319TIP3   OH254067   4.684   3.098   6.552  0.4887  0.1600 -0.1388
 9319TIP3    H154068   4.603   3.119   6.505 -0.8996 -1.0821  1.5628
 9319TIP3    H254069   4.694   3.168   6.616 -0.3626 -0.6468  0.9332
 9320TIP3   OH254070   7.144   1.607   6.634  0.4753 -0.0964  0.4976
 9320TIP3    H154071   7.233   1.580   6.657  0.1312 -0.5701  1.3241
 9320TIP3    H254072   7.091   1.528   6.647  0.0614 -0.0483 -0.7914
 9321TIP3   OH254073   0.123   4.694   0.566 -0.6048  0.3191 -0.3396
 9321TIP3    H154074   0.153   4.783   0.550 -1.6487  0.4444 -1.7252
 9321TIP3    H254075   0.172   4.640   0.504  2.2038 -0.5870  2.3906
 9322TIP3   OH254076   2.441   5.244   7.343 -0.3154  0.3275  0.0880
 9322TIP3    H154077   2.478   5.309   7.402  2.4516 -0.6915 -0.3605
 9322TIP3    H254078   2.509   5.229   7.277 -0.8634 -2.8003  0.0387
 9323TIP3   OH254079   4.169   2.808   1.155 -0.9235 -0.2843 -0.7362
 9323TIP3    H154080   4.108   2.759   1.210 -0.8130  0.8099  0.4201
 9323TIP3    H254081   4.233   2.843   1.217  0.2609 -0.5059 -1.8004
 9324TIP3   OH254082   5.953   2.297   1.128 -0.6213 -0.2089  0.2691
 9324TIP3    H154083   5.890   2.369   1.119 -0.6468 -0.3383 -0.6169
 9324TIP3    H254084   6.013   2.309   1.055 -0.5263 -0.9953  0.2168
 9325TIP3   OH254085   4.506   1.082   7.601  0.7775 -0.3964 -0.2442
 9325TIP3    H154086   4.465   1.087   7.688 -0.8927 -0.6119 -0.9891
 9325TIP3    H254087   4.507   1.172   7.570  2.0462 -0.2132  0.2668
 9326TIP3   OH254088   7.410   7.692   7.747  0.2590  0.1090  0.1208
 9326TIP3    H154089   7.395   7.627   7.679  1.1858  0.7998 -0.7750
 9326TIP3    H254090   7.488   7.739   7.718 -0.7472  2.0394  0.3967
 9327TIP3   OH254091   2.355   0.016   7.107 -0.4988 -0.4579  0.2005
 9327TIP3    H154092   2.315  -0.069   7.119 -1.6571  0.2120  1.2479
 9327TIP3    H254093   2.338   0.038   7.015 -2.5983 -0.1885  0.6116
 9328TIP3   OH254094   4.355   7.478   6.568  0.4700 -0.0887  0.4462
 9328TIP3    H154095   4.361   7.440   6.481  0.4894 -0.1707  0.4834
 9328TIP3    H254096   4.292   7.550   6.558 -1.1283 -1.3766  0.8046
 9329TIP3   OH254097   7.393   1.982   6.568  0.3677 -0.7841  0.1016
 9329TIP3    H154098   7.446   2.032   6.506  1.7527  0.3548  2.0684
 9329TIP3    H254099   7.433   1.895   6.571  0.6126 -0.6802 -0.2133
 9330TIP3   OH254100   5.085   7.116   6.637 -0.6327 -0.2908 -0.1620
 9330TIP3    H154101   5.057   7.028   6.613  1.4769 -1.1069  0.1180
 9330TIP3    H254102   5.180   7.116   6.621  0.0052  0.8713  2.9143
 9331TIP3   OH254103   2.140   5.158   7.762 -0.2959  0.3566 -0.3851
 9331TIP3    H154104   2.177   5.168   7.849  0.2905 -0.2874 -0.5549
 9331TIP3    H254105   2.216   5.147   7.705 -0.5709  2.2955 -1.2185
 9332TIP3   OH254106   1.433   2.514   7.736  0.0733  0.0843  0.3488
 9332TIP3    H154107   1.376   2.437   7.731  0.1288  0.0914 -0.6147
 9332TIP3    H254108   1.492   2.506   7.660 -1.4276  2.2327 -1.1931
 9333TIP3   OH254109   0.154   6.964   7.482 -0.0584 -0.3751  0.3538
 9333TIP3    H154110   0.176   7.057   7.493  0.9038 -0.5643  0.1800
 9333TIP3    H254111   0.186   6.923   7.562  1.5385 -0.8654 -0.4877
 9334TIP3   OH254112   0.173   4.415   5.581  0.7229  0.1079  0.7147
 9334TIP3    H154113   0.202   4.504   5.557  2.1752 -0.2736  0.9563
 9334TIP3    H254114   0.255   4.367   5.597  0.0102 -1.5392 -0.3496
 9335TIP3   OH254115   5.566   2.803   5.927  0.1470  0.4468  0.0991
 9335TIP3    H154116   5.484   2.834   5.890  0.9358 -1.1640 -3.3773
 9335TIP3    H254117   5.632   2.820   5.859  2.4818  0.4090  2.1765
 9336TIP3   OH254118   0.070   4.970   6.312  0.2274 -0.4518  0.1027
 9336TIP3    H154119   0.029   4.962   6.398  1.1286 -2.7645  0.3987
 9336TIP3    H254120   0.016   5.033   6.265 -2.4275 -1.8102  1.1555
   8.11301   8.11301   7.94645
